ITEM: TIMESTEP                                    
45000                                             
ITEM: NUMBER OF ATOMS                             
        7200
ITEM: BOX BOUNDS pp pp pp                         
 -0.47516468087509789        50.875159680875115     
 -0.40333061457728975        44.051011114578444     
   7.3139657517627313E-002   48.286862742481816     
ITEM: ATOMS id type x y z c_strOrder c_bondOrder
       11   2     0.71644200     1.28226000     2.12300000   -3.54    0.04
      603   2     2.19958000     0.80371300     4.08213000    0.37    0.03
      602   1     2.24863000     3.68405000     3.76320000    1.83    0.04
        8   2     3.50310000     1.50695000     2.00273000   -2.26    0.03
       21   2     7.04928000    43.92536673     2.27037000   -3.58    0.04
        2   1     1.94638000     3.86985000     0.14256600    2.37    0.02
      618   2     4.89125000     2.30341000     3.85951000    1.34    0.05
       22   2     4.47866000     4.07298000     1.97259000   -1.91    0.04
       23   2     5.70377000     1.66717000     1.92521000   -3.50    0.03
      615   2     7.25022000     1.37917000     4.37312000   -0.32    0.04
      614   1     6.97110000     3.98342000     4.32834000    2.71    0.05
      610   2    -0.13491000     3.89637000     6.13423000   -2.95    0.04
      130   2    50.75664536    12.98550000     1.81276000   -1.06    0.05
     1953   2    12.35480000     8.89220000    14.24110000   -2.29    0.03
      630   2     9.89863000     2.72469000     4.06254000   -1.09    0.05
       35   2    11.01690000     1.83880000     2.02789000   -1.21    0.04
       34   2     9.67426000     4.13850000     2.22425000    0.97    0.04
       20   2     8.62237000     1.89686000     2.34927000   -4.35    0.04
     1810   2    50.71078236     4.18419000    14.05790000   -2.16    0.04
     1950   2     9.88043000    11.51430000    12.18670000    0.53    0.04
        7   2     1.09937000     6.35826000     2.00929000   -2.55    0.04
      129   2     1.80187000     8.55151000     1.98970000   -2.41    0.04
      605   2     2.23564000     7.06899000     4.11187000    0.02    0.04
       12   2     3.28724000     6.17784000     1.98143000   -1.97    0.04
      133   1     4.50566000     8.29573000     0.28794500    2.37    0.05
      726   2    50.63535436    11.56880000     3.87108000    1.45    0.05
     1209   2     1.97892000    43.93237473    10.15540000   -1.69    0.04
     1326   2    -0.36404400    11.72380000     8.00436000    0.84    0.05
      733   1     4.55812000     8.71893000     4.12120000    2.72    0.05
      616   2     4.54978000     5.73072000     4.04450000    0.57    0.05
       19   2     6.10970000     6.35989000     1.83777000   -2.01    0.04
      141   2     7.33747000     8.67177000     1.96621000   -1.49    0.04
      617   2     6.95998000     6.96083000     4.05269000    0.20    0.06
      621   2     7.30947000    44.03489873     6.05233000   -3.39    0.04
      745   1     9.84495000     8.88918000     3.91090000    2.30    0.05
      628   2     9.57269000     6.06530000     4.11800000    2.01    0.06
       31   2    11.08460000     6.10727000     2.33367000   -2.61    0.05
       24   2     8.34786000     6.25017000     2.06988000   -4.03    0.05
     2406   2     0.01524600     2.51834000    16.03540000    1.72    0.05
      131   2     0.57909500    10.69180000     2.04894000   -3.09    0.05
      723   2     1.95075000     9.89872000     3.89773000   -0.02    0.05
      722   1     2.01508000    12.82100000     4.07470000    2.81    0.04
      128   2     3.46315000    10.69190000     2.11450000   -2.25    0.05
      147   2    12.48060000    10.15420000     0.42180900    2.30    0.05
     1825   1     9.92150000    -0.22295600    11.50990000    4.19    0.04
      738   2     4.83992000    11.67200000     4.05465000    1.02    0.04
      142   2     4.63101000    12.82260000     1.86616000   -2.16    0.04
      143   2     5.89346000    10.56880000     1.87495000   -3.58    0.05
      735   2     7.30736000    10.40350000     3.95467000    0.15    0.04
      734   1     7.40157000    13.14100000     4.20044000    1.62    0.04
       10   2    -0.33281500     4.13144000     1.79930000   -2.88    0.04
     1924   2    -0.43544600    14.48150000    11.94390000   -0.51    0.05
      750   2    10.03990000    11.58810000     4.10518000    0.35    0.04
      155   2    11.08580000    10.76140000     2.11838000   -3.65    0.04
      154   2     9.64500000    12.82930000     2.23012000   -1.26    0.05
      140   2     8.60855000    10.76450000     2.00351000   -4.11    0.05
      625   1     9.69142000    -0.34363900     3.85881000    1.13    0.03
     1955   2    11.03160000    10.92550000    14.09020000   -3.57    0.04
     1954   2     9.37983000    12.87440000    14.29320000   -3.27    0.05
      611   2     0.50394600     1.62851000     5.76107000   -2.17    0.04
     1211   2     1.13442000     1.92078000    10.08670000   -4.31    0.04
     1203   2     1.68228000     1.02264000     8.17422000    2.25    0.04
     1202   1     2.36894000     4.18592000     8.14999000    1.38    0.04
      608   2     3.33080000     1.57606000     6.31062000   -0.13    0.03
     1208   2     3.73596000     1.69946000     9.94886000   -1.32    0.03
     1926   2    -0.33336200    11.60920000    12.02970000   -0.81    0.04
     1947   2    12.22650000    10.26060000    12.24060000    0.91    0.04
        3   2     1.88343000     0.75551400     0.28800900    1.07    0.04
     1218   2     4.99599000     2.33296000     8.16670000    0.66    0.04
      622   2     4.44175000     3.79786000     6.10886000   -2.43    0.05
     1222   2     4.73726000     3.94156000    10.07200000   -4.15    0.04
     1223   2     6.07772000     1.76666000    10.17230000   -4.43    0.04
      623   2     6.12995000     2.02030000     6.27088000   -3.81    0.04
     1215   2     6.96825000     0.77323200     8.22667000    0.63    0.05
     1214   1     7.13235000     3.96935000     8.63286000    3.19    0.04
     1230   2     9.43113000     2.39315000     8.28070000    0.27    0.04
      635   2    11.03690000     1.59829000     6.19475000   -2.21    0.04
     1235   2    11.20470000     2.36638000     9.93581000   -4.13    0.04
      634   2     9.32043000     4.03953000     6.26454000   -0.85    0.04
     1234   2     9.81894000     4.04163000    10.20140000   -1.10    0.04
      620   2     8.56189000     1.68331000     6.26762000   -0.99    0.04
     1220   2     8.58558000     1.70676000    10.12560000   -0.94    0.05
     2522   1     1.90670000    13.20190000    15.66270000    2.42    0.03
      607   2     0.70823400     6.14299000     6.01400000   -1.93    0.05
     1207   2     0.60376700     6.02268000     9.97583000   -2.63    0.05
      729   2     1.78655000     8.45810000     5.93216000   -3.67    0.05
     1329   2     1.88782000     8.29193000     9.89006000   -0.35    0.06
     1205   2     2.02579000     6.84092000     7.96934000    0.01    0.05
     1212   2     3.51040000     6.13274000    10.04520000   -1.42    0.05
     1921   1    -0.35714300     8.36019000    12.06250000    0.58    0.04
      612   2     3.30839000     6.16932000     5.96617000   -1.66    0.04
     1333   1     4.33819000     8.73262000     7.51956000    4.25    0.04
     1216   2     4.78560000     5.65910000     7.93591000    0.83    0.05
      619   2     5.89817000     6.52831000     6.01795000   -1.33    0.04
     1219   2     5.99745000     6.30117000    10.15140000   -2.11    0.05
      741   2     7.17264000     8.59993000     5.84890000   -0.76    0.05
     1341   2     6.84287000     8.39849000     9.90295000   -4.13    0.05
     1217   2     7.05384000     7.08570000     7.90007000    1.31    0.05
     1345   1     9.93554000     8.31084000     8.15556000    2.72    0.05
     1228   2    10.11190000     5.36672000     8.07651000    0.19    0.04
      631   2    10.89430000     6.50301000     6.08939000   -2.44    0.05
     1231   2    11.20780000     6.08561000    10.17130000   -3.16    0.04
      624   2     8.64873000     6.23573000     6.34360000   -0.31    0.05
     1224   2     8.53552000     6.33474000    10.06740000   -2.47    0.05
     1346   1    12.29110000    13.01810000     8.43985000    1.64    0.05
     1940   2     8.75485000    10.61940000    14.03310000   -2.25    0.05
     2427   2    12.19840000     1.03562000    16.18820000    0.80    0.05
      145   1    10.15750000     8.45568000     0.19869600    2.39    0.04
      731   2     0.86116100    10.87240000     6.10887000   -2.53    0.05
     1331   2     1.02362000    10.74580000    10.00450000   -3.05    0.06
     1323   2     1.88802000     9.94049000     8.09089000    2.36    0.05
     1322   1     2.31001000    13.05590000     8.18158000    3.31    0.04
      728   2     3.39239000    10.94510000     5.97293000   -1.42    0.05
     1328   2     3.71481000    10.36510000    10.13630000   -4.09    0.05
     1935   2     7.14453000     9.77951000    11.95130000    1.38    0.05
     1335   2     7.08660000     9.60810000     8.17098000    2.07    0.05
     1338   2     4.65815000    11.30780000     8.04181000    1.37    0.05
      742   2     4.64767000    12.78920000     6.19293000   -1.80    0.05
     1342   2     4.93772000    13.00540000     9.97296000   -1.94    0.04
     1343   2     6.03104000    10.63830000    10.08520000   -1.96    0.05
      743   2     5.88391000    10.57980000     6.03541000   -2.58    0.05
     1334   1     6.85174000    12.73250000     7.58847000    2.96    0.04
     1934   1     7.21623000    12.82270000    12.05290000    2.25    0.04
     1350   2     9.62552000    11.54580000     8.22125000    0.59    0.05
      755   2    11.24240000    10.79900000     6.17837000   -2.56    0.04
     1355   2    10.99970000    10.61990000    10.14480000   -3.86    0.06
      754   2     9.75538000    12.97330000     5.98113000   -3.58    0.05
     1354   2     9.64916000    12.85790000    10.07330000   -3.82    0.06
      740   2     8.72233000    10.67600000     6.16557000   -3.03    0.05
     1340   2     8.44215000    10.67690000     9.96865000   -1.72    0.05
     1936   2     4.70556000    14.35510000    12.08930000   -0.30    0.03
     2414   1     7.31853000     4.20495000    16.09580000    3.75    0.05
       14   1     7.07512000     3.92319000     0.09053900    2.30    0.04
     2415   2     7.34175000     1.12770000    15.95470000    0.72    0.04
     1811   2     0.81708400     1.64282000    14.00160000   -3.82    0.03
     1803   2     2.34575000     1.02111000    11.89570000    0.14    0.03
     1802   1     2.08247000     4.04325000    12.00540000    3.34    0.03
     1808   2     3.29304000     2.02339000    13.92210000   -4.39    0.04
     1348   2     9.89758000    14.28030000     8.12617000    2.62    0.06
     1818   2     4.96449000     2.51447000    12.10820000    2.15    0.04
     1822   2     4.41106000     4.16090000    14.12500000   -3.19    0.05
     1823   2     5.57781000     1.77938000    14.26910000   -2.09    0.05
     1815   2     7.46152000     1.06563000    12.05910000    0.94    0.04
     1814   1     7.23346000     4.13585000    12.40410000    3.20    0.04
     1923   2     1.80324000     9.79068000    12.03650000    1.90    0.04
     2430   2     9.86745000     2.51744000    16.04340000    0.36    0.05
     1830   2     9.77452000     2.90861000    12.12140000    0.27    0.04
     1835   2    11.21730000     1.81027000    14.09440000   -2.89    0.04
     1834   2     9.81296000     4.25196000    14.19360000   -3.24    0.06
     1820   2     8.63588000     1.82554000    14.08750000   -2.78    0.04
     1943   2     5.98657000    10.60090000    14.00080000   -2.88    0.04
     1226   1    12.36080000     4.03659000     7.83924000    3.22    0.03
      736   2     4.90070000    13.98490000     4.01910000    0.50    0.04
     1922   1     2.13114000    12.84350000    11.54280000    2.43    0.04
     1942   2     4.73817000    12.73980000    14.24680000   -3.32    0.04
     1807   2     0.77178400     6.01591000    14.21690000   -3.14    0.05
     1812   2     3.10601000     6.21825000    13.99580000   -2.38    0.04
     1805   2     1.93213000     6.93588000    11.87190000    1.53    0.04
     1929   2     2.21400000     8.45302000    13.96650000   -1.61    0.05
     1928   2     3.39925000    10.65520000    13.89120000   -3.74    0.05
     1931   2     0.82006400    10.92230000    14.03280000   -3.00    0.05
     1816   2     4.71471000     5.75420000    12.42810000    1.82    0.04
     1941   2     7.48692000     8.54888000    14.10100000   -4.58    0.05
     1817   2     7.20495000     7.27829000    12.12490000    1.46    0.04
     1933   1     4.67717000     8.50973000    11.98220000    3.51    0.04
     1819   2     5.75700000     6.19178000    14.39570000   -2.71    0.05
     1210   2    -0.42541700     3.86785000    10.29280000   -4.39    0.05
     1828   2     9.67648000     5.61944000    12.06810000   -0.66    0.03
     1945   1     9.74833000     8.56143000    11.75170000    2.94    0.04
     1831   2    11.22310000     6.03513000    14.10140000   -4.47    0.05
     1824   2     8.56712000     6.31812000    14.14050000   -2.37    0.05
      629   2    12.24450000     6.56236000     4.28333000    4.01    0.06
     1938   2     4.51764000    11.65590000    12.04710000    0.31    0.04
     1206   2    -0.14730500     2.47815000     8.40269000   -0.63    0.04
     1227   2    12.15640000     0.91411200     8.22078000    1.68    0.05
     1821   2     7.29278000    -0.11592700    14.08390000   -2.26    0.04
      626   1    11.98610000     4.06002000     4.57282000    3.59    0.05
     2402   1     2.26625000     4.25795000    16.18180000    1.34    0.03
      604   2     0.09373740     5.40608000     3.73617000    0.92    0.05
      606   2    50.84697036     2.78188000     3.89237000    0.02    0.04
      753   2    12.00920000     8.66488000     6.08079000   -1.77    0.05
       26   1    12.25220000     3.78709000     0.09086800    2.54    0.04
     1353   2    12.52920000     8.63601000    10.14580000   -2.46    0.04
      627   2    12.39070000     0.60531700     3.99951000    1.88    0.05
     1826   1    12.26150000     4.19410000    11.98780000    0.81    0.03
      146   1    12.25640000    12.86180000     0.56963400    2.22    0.03
       29   2    12.35460000     6.37722000    48.27087068    3.85    0.05
        6   2    -0.18175500     2.29913000     0.21420300    2.14    0.05
     2403   2     2.17722000     1.30698000    16.06740000    1.11    0.05
     2533   1     4.60885000     8.46243000    16.03830000    2.64    0.04
     2536   2     4.22187000    14.59710000    15.85240000    1.01    0.04
       15   2     7.69930000     0.87240100     0.34695500    1.99    0.04
      150   2     9.88302000    11.44240000     0.07621450    0.91    0.04
     2411   2     1.36654000     2.32538000    18.07820000   -4.60    0.04
     3003   2     2.00295000     1.31596000    20.11520000    2.15    0.06
     3002   1     2.35265000     3.93721000    20.63270000    2.92    0.04
     2408   2     3.64313000     1.84566000    18.33330000   -3.02    0.04
     3121   1    -0.42956900     8.50688000    20.12970000    3.11    0.05
     4321   1    -0.38315400     8.69432000    28.13750000    0.71    0.04
     3633   2    12.36760000    43.97679273    26.11150000   -3.08    0.05
     3018   2     5.14083000     2.34685000    20.19370000    0.87    0.04
     2422   2     4.56201000     4.03741000    18.45410000   -2.02    0.04
     2423   2     6.31291000     1.96169000    17.87960000   -4.32    0.04
     3015   2     7.35381000     1.12428000    19.99800000    1.06    0.05
     3014   1     7.46325000     3.94298000    19.94150000    3.34    0.04
     3001   1    50.79885336    -0.37672400    19.90150000    2.90    0.04
     4326   2    -0.42383400    11.68960000    27.92660000   -0.04    0.05
     3030   2    10.20100000     2.63120000    20.07370000    1.42    0.05
     2435   2    11.02420000     1.72063000    18.10600000   -5.70    0.04
     2434   2     9.82001000     3.89006000    18.06990000   -1.50    0.05
     2420   2     8.61693000     1.69152000    17.88400000   -2.34    0.05
     3609   2     2.05507000    44.02712673    26.06090000   -2.00    0.05
     2548   2     9.37574000    14.31230000    16.17890000    2.47    0.05
     2530   2    -0.44823900    13.04590000    18.35550000   -1.13    0.04
     2417   2     7.38267000     6.74593000    16.30800000    0.70    0.05
     4350   2     9.78748000    11.64500000    28.18970000    0.17    0.05
     2407   2     0.91659400     6.15304000    18.10990000   -2.04    0.05
     2529   2     2.46564000     8.47501000    18.31580000   -2.50    0.04
     3005   2     2.17743000     6.96776000    20.10670000    0.55    0.05
     2412   2     3.37216000     6.25768000    18.20180000   -4.89    0.04
     2534   1     6.94175000    12.98180000    16.14570000    3.14    0.04
     3133   1     4.72681000     8.36384000    19.83020000    1.03    0.04
     3016   2     4.89829000     5.51540000    20.11410000    0.70    0.04
     2419   2     5.87104000     6.10499000    18.13250000   -2.16    0.05
     2541   2     7.27149000     8.75513000    18.06890000   -1.35    0.06
     3017   2     7.44300000     7.28168000    20.09610000    0.13    0.05
     3625   1     9.87558000    -0.36748100    24.08480000    3.01    0.05
     3145   1     9.99552000     8.53169000    19.94470000    3.58    0.05
     3028   2     9.83466000     5.36533000    20.14270000    0.51    0.04
     2431   2    11.19270000     5.97508000    18.19020000   -3.02    0.05
     2424   2     8.62648000     6.23662000    18.14790000   -4.47    0.06
     4206   2    50.83515236     2.23406000    28.18870000    1.31    0.05
     3025   1     9.92948000    -0.39694900    20.42600000    1.28    0.04
     3126   2    50.73925736    11.27120000    20.27710000    1.68    0.05
     2531   2     0.67581400    10.98830000    17.96120000   -2.36    0.05
     3123   2     1.86780000    10.01400000    20.05280000   -0.26    0.04
     3122   1     2.02575000    13.26230000    20.11190000    2.61    0.04
     2528   2     3.23173000    10.95020000    18.16940000   -2.73    0.05
     3153   2    12.57400000     8.62974000    22.19630000   -4.17    0.05
     4225   1     9.65246000    -0.08663910    27.82190000    3.54    0.05
     3138   2     4.50846000    11.28160000    20.01110000   -0.24    0.05
     2542   2     4.51374000    13.21860000    17.88890000   -3.22    0.04
     2543   2     5.60806000    10.80240000    18.09280000   -2.89    0.04
     3135   2     6.98744000     9.80799000    20.32190000    1.86    0.05
     3134   1     7.13284000    13.02340000    20.01810000    3.31    0.04
     2405   2     2.36975000     7.14547000    16.17450000    0.98    0.04
     4330   2    -0.44218000    13.05790000    30.09200000   -2.72    0.05
     3150   2    10.04200000    11.78290000    20.23530000   -0.15    0.05
     2555   2    11.04240000    10.85890000    18.30390000   -1.91    0.04
     2554   2     9.72434000    13.12790000    18.18790000   -4.28    0.06
     2540   2     8.66904000    10.83160000    18.39400000   -2.34    0.05
     4355   2    10.94040000    10.53350000    30.30710000   -1.60    0.04
     2421   2     7.55646000    43.92779973    18.24210000   -2.23    0.05
     2545   1     9.75234000     8.45963000    16.18860000    3.23    0.05
     4334   1     7.06758000    13.04370000    28.32580000    2.58    0.04
     2428   2     9.81344000     5.78026000    16.09830000    1.62    0.05
     3011   2     0.94086800     2.21204000    22.15360000   -1.30    0.04
     3611   2     0.65772200     2.01603000    26.01160000   -2.68    0.04
     3603   2     1.91632000     1.13894000    24.20400000    1.55    0.04
     3602   1     2.33649000     4.37953000    24.26370000    4.33    0.04
     3008   2     3.61592000     1.53275000    22.17130000   -1.97    0.04
     3608   2     3.29960000     1.82134000    26.02640000   -2.02    0.04
     4210   2    -0.20049100     3.96420000    29.94860000   -3.79    0.04
     3618   2     4.66103000     2.09457000    24.17220000    2.59    0.04
     3022   2     4.87973000     3.80110000    22.27800000   -1.23    0.03
     3622   2     4.62731000     4.08209000    26.15530000   -1.93    0.04
     3623   2     5.92188000     1.84270000    25.97940000   -4.09    0.03
     3023   2     6.07419000     1.51881000    22.02950000   -4.26    0.04
     3615   2     7.23224000     1.12695000    24.04090000    0.80    0.05
     3614   1     7.22390000     4.00996000    24.19540000    2.90    0.03
     4805   2     2.11531000     6.79095000    32.32260000   -0.50    0.05
     2550   2     9.32019000    11.53790000    16.15200000    0.67    0.04
     3630   2    10.00580000     2.48107000    24.12680000    0.48    0.05
     3035   2    11.19860000     2.04765000    22.17930000   -4.39    0.04
     3635   2    11.07350000     1.70275000    26.06710000   -1.07    0.05
     3034   2     9.77349000     4.04054000    22.18350000   -3.55    0.04
     3634   2     9.94944000     3.95735000    25.98860000   -4.75    0.05
     3020   2     8.72705000     1.73339000    21.95130000   -1.68    0.04
     3620   2     8.43382000     1.98463000    26.07510000   -2.30    0.04
     4354   2     9.62426000    12.98540000    30.38890000   -3.29    0.04
     4340   2     8.42452000    10.60080000    30.19800000   -2.72    0.05
     3007   2     1.15400000     6.43819000    22.12250000   -0.76    0.05
     3607   2     0.75185800     6.39714000    25.95840000   -0.40    0.05
     3129   2     2.59564000     8.34478000    22.05000000   -3.01    0.04
     3729   2     2.25563000     8.69736000    26.21440000   -3.04    0.04
     3605   2     2.08623000     7.39871000    24.14660000    0.85    0.05
     3012   2     3.64073000     6.20334000    21.93460000   -4.59    0.04
     3612   2     3.49934000     6.54908000    26.00730000   -3.25    0.04
     3733   1     4.77966000     8.79977000    24.39220000    1.39    0.03
     3616   2     5.03426000     5.51927000    23.96990000    0.76    0.03
     3019   2     5.94275000     6.53158000    22.05610000   -1.67    0.05
     3619   2     5.99674000     6.42954000    26.02140000   -1.95    0.04
     3141   2     7.57027000     8.63758000    22.19170000   -2.81    0.04
     3741   2     7.22659000     8.66225000    25.83860000   -2.85    0.03
     3617   2     7.33934000     6.99763000    23.99750000   -0.01    0.03
     4335   2     7.81411000    10.06760000    27.95290000    3.89    0.06
     3745   1     9.69960000     8.65374000    24.21360000    3.18    0.03
     3628   2    10.16550000     5.63807000    24.10110000    0.46    0.05
     3031   2    10.98270000     6.49498000    22.23880000   -2.70    0.03
     3631   2    11.38170000     6.22048000    26.17130000   -2.87    0.05
     3024   2     8.42861000     6.01952000    22.08330000   -4.42    0.05
     3624   2     8.56277000     6.33067000    25.90910000   -1.99    0.03
     3610   2    -0.25083400     4.21955000    26.42650000   -1.64    0.05
     3131   2     0.75468800    11.03130000    22.15560000   -3.39    0.05
     3731   2     0.84208300    10.60790000    26.12940000   -2.26    0.04
     3723   2     1.94546000     9.88795000    24.06520000    0.74    0.06
     3722   1     1.97684000    12.84670000    23.96310000    2.87    0.05
     3128   2     3.28379000    10.71130000    22.09230000   -4.17    0.05
     3728   2     3.51367000    10.89610000    26.22000000   -2.49    0.05
     2538   2     4.60765000    11.25090000    16.01720000    1.43    0.05
     2409   2     2.27264000    -0.25913300    18.13030000   -2.37    0.06
     3738   2     4.91506000    11.78300000    24.18390000    0.91    0.04
     3142   2     4.87847000    12.92640000    21.92850000   -2.91    0.04
     3742   2     4.87284000    13.11030000    26.29730000   -3.06    0.04
     3743   2     6.13782000    10.81780000    26.36000000   -1.70    0.03
     3143   2     5.71971000    10.65720000    22.17570000   -5.14    0.04
     3735   2     7.50752000    10.44650000    24.15000000    0.73    0.04
     3734   1     7.28488000    13.32210000    24.14350000    2.43    0.03
     3721   1    50.85323236     8.52905000    23.66980000    2.65    0.04
     3750   2    10.06480000    11.74190000    24.15190000    0.95    0.03
     3155   2    10.91630000    10.67650000    22.30010000   -0.89    0.04
     3755   2    11.10720000    10.45000000    26.41040000    0.35    0.04
     3154   2     9.63790000    13.16590000    22.23190000   -4.47    0.05
     3754   2    10.05800000    13.21460000    26.17640000   -3.03    0.05
     3140   2     8.45351000    11.07760000    22.25740000   -2.41    0.04
     3740   2     8.56206000    11.41200000    26.15680000   -3.37    0.04
     4922   1     2.04097000    12.92890000    31.97280000   -0.15    0.04
     4802   1     2.31376000     3.78176000    31.95080000    2.43    0.03
     4211   2     0.62046400     1.67102000    30.14190000   -3.47    0.05
     4203   2     1.99119000     1.07414000    28.00330000    0.88    0.04
     4202   1     1.99253000     4.13613000    28.02760000    3.50    0.04
     4208   2     3.49301000     1.74011000    30.16290000   -1.46    0.04
     4226   1    12.32420000     3.82601000    27.92150000    4.11    0.05
     4322   1     2.28546000    13.07050000    27.95170000    2.92    0.04
     4218   2     4.68527000     2.49161000    27.98450000   -0.14    0.05
     4222   2     4.84218000     4.08906000    30.00700000   -3.22    0.05
     4223   2     6.11323000     1.90205000    30.06710000   -2.11    0.04
     4215   2     7.26075000     1.25881000    28.19740000    1.75    0.05
     4214   1     6.87307000     4.31880000    27.89150000    2.33    0.04
     3006   2    -0.20877500     2.87327000    20.16670000    0.58    0.05
     3136   2     4.36534000    14.29950000    20.17720000    1.95    0.04
     4828   2     9.94943000     5.61426000    32.16940000    1.53    0.03
     4818   2     4.89559000     2.65148000    32.19590000    0.59    0.04
     4220   2     8.48955000     1.89645000    30.17370000   -2.13    0.04
     4230   2     9.38969000     2.88413000    28.09120000    1.90    0.06
     4235   2    10.88060000     1.54373000    29.94030000   -3.02    0.05
     4234   2     9.74924000     4.12514000    30.12560000   -5.04    0.05
     4331   2     0.69306700    10.58600000    30.18200000   -2.46    0.04
     4328   2     3.06589000    10.53780000    30.01950000   -3.40    0.04
     4343   2     5.90025000    10.73890000    30.37420000   -0.23    0.05
     4323   2     1.94430000     9.82133000    28.11920000    1.02    0.04
     4207   2     0.96529100     6.38123000    30.07820000   -2.15    0.03
     4329   2     1.83711000     8.42863000    30.20470000   -4.28    0.05
     4205   2     2.08494000     6.96260000    27.79270000   -1.16    0.05
     4212   2     3.31795000     6.55246000    30.13510000   -2.27    0.04
     4935   2     7.16534000     9.77429000    32.03850000   -0.34    0.05
     4341   2     7.19679000     8.27411000    29.93040000   -3.43    0.04
     4219   2     6.02946000     6.23446000    29.80790000   -1.74    0.04
     4216   2     4.22186000     5.67575000    28.20840000    0.77    0.05
     4333   1     5.02461000     8.70680000    27.99830000    2.68    0.04
     4217   2     7.58881000     7.12141000    27.94720000   -0.21    0.04
     4338   2     4.56426000    11.42190000    28.30680000    1.80    0.06
     4324   2    -0.42708400    14.54780000    28.13840000   -0.60    0.05
     4231   2    11.04150000     6.06100000    30.11890000   -1.21    0.06
     4224   2     8.70815000     6.55835000    30.19630000   -0.36    0.04
     4345   1     9.96629000     8.29608000    27.78830000    3.33    0.04
     4228   2     9.72265000     5.33268000    27.94520000    0.75    0.05
     4342   2     4.87887000    12.94950000    30.21970000   -2.12    0.04
     4825   1     9.59948000    44.03595973    32.08630000    3.08    0.04
     4945   1     9.89655000     8.54091000    32.08840000    3.47    0.04
     2416   2     4.63875000     5.29138000    16.38280000    0.82    0.04
     3027   2    12.45100000     1.24616000    20.00180000    0.51    0.04
     4923   2     2.29958000    10.19670000    32.19840000    1.19    0.05
     4346   1    12.29560000    13.07530000    28.21810000    2.13    0.03
     4816   2     4.62029000     5.45092000    31.91630000    0.47    0.03
     4830   2    10.19370000     2.61701000    32.03080000    0.75    0.04
     4815   2     7.31733000     1.34941000    31.95690000    1.21    0.05
     4803   2     2.02644000     0.88426800    31.96990000    2.10    0.05
     4347   2    12.60640000     9.64600000    28.16590000    3.42    0.05
     2553   2    12.47380000     8.66267000    18.20770000   -1.23    0.04
     2546   1    12.07230000    13.07110000    16.26800000    2.71    0.04
     3029   2    12.36710000     6.88865000    20.10640000    0.40    0.05
     3004   2    -0.17768000     5.52577000    20.07730000   -0.38    0.05
     2521   1    -0.17040700     8.68360000    16.62010000    1.98    0.04
     4817   2     7.45854000     6.98187000    32.12900000    1.34    0.04
     4950   2     9.42568000    11.40280000    32.16970000    1.13    0.05
     4814   1     7.58199000     4.12453000    31.79960000    3.84    0.04
     4806   2    -0.45827200     2.59419000    32.19240000    1.45    0.03
     2418   2     4.59603000     2.65786000    16.15200000    0.35    0.03
     2523   2     1.99315000    10.18720000    15.87180000    1.42    0.04
     2535   2     7.51584000     9.89818000    16.11890000    0.16    0.05
     4811   2     0.83851000     1.62398000    34.18930000   -3.45    0.05
     5403   2     2.19026000     0.87438900    36.06700000    0.52    0.04
     5402   1     2.16379000     3.91185000    36.24910000    3.20    0.03