ITEM: TIMESTEP
45000
ITEM: NUMBER OF ATOMS
7200
ITEM: BOX BOUNDS pp pp pp
-4.7516468087509789e-01 5.0875159680875115e+01
-4.0333061457728975e-01 4.4051011114578444e+01
7.3139657517627313e-02 4.8286862742481816e+01
ITEM: ATOMS id type x y z fx fy fz 
11 2 0.716442 1.28226 2.123 -0.236243 0.422664 2.03575 
603 2 2.19958 0.803713 4.08213 -0.348386 -0.242662 0.589459 
602 1 2.24863 3.68405 3.7632 0.0856517 0.14295 0.335684 
8 2 3.5031 1.50695 2.00273 -1.97507 -0.329317 0.0684616 
21 2 7.04928 -0.528975 2.27037 0.111092 1.41421 -0.463497 
2 1 1.94638 3.86985 0.142566 0.383148 0.505826 -0.228299 
618 2 4.89125 2.30341 3.85951 -0.901123 0.320784 2.02612 
22 2 4.47866 4.07298 1.97259 0.794549 -0.322953 1.57377 
23 2 5.70377 1.66717 1.92521 2.87468 -0.463964 -1.01416 
615 2 7.25022 1.37917 4.37312 -0.250055 -1.5258 -2.07045 
614 1 6.9711 3.98342 4.32834 0.748551 1.87635 -0.492504 
610 2 -0.13491 3.89637 6.13423 -0.427246 0.0815692 0.258702 
130 2 -0.593679 12.9855 1.81276 0.349405 -0.664743 1.88097 
1953 2 12.3548 8.8922 14.2411 -0.444145 -1.51093 0.291645 
630 2 9.89863 2.72469 4.06254 -0.76461 -0.861911 1.84785 
35 2 11.0169 1.8388 2.02789 1.33714 -0.380669 1.00042 
34 2 9.67426 4.1385 2.22425 -0.187027 0.0992038 -0.535427 
20 2 8.62237 1.89686 2.34927 -1.19138 -0.127846 -1.05573 
1810 2 -0.639542 4.18419 14.0579 0.278085 -1.21291 0.568158 
1950 2 9.88043 11.5143 12.1867 -0.492999 0.463166 -1.55574 
7 2 1.09937 6.35826 2.00929 -2.06823 -0.331775 -0.250396 
129 2 1.80187 8.55151 1.9897 1.16597 0.179145 0.168623 
605 2 2.23564 7.06899 4.11187 -0.574773 -0.571059 -1.36475 
12 2 3.28724 6.17784 1.98143 1.71154 0.325379 0.196584 
133 1 4.50566 8.29573 0.287945 -0.040377 0.352375 -0.290314 
726 2 -0.71497 11.5688 3.87108 0.16572 -0.126107 0.673217 
1209 2 1.97892 -0.521967 10.1554 0.962241 0.739559 -0.691697 
1326 2 -0.364044 11.7238 8.00436 0.401748 -0.142262 0.909636 
733 1 4.55812 8.71893 4.1212 0.379735 -0.343221 -0.522124 
616 2 4.54978 5.73072 4.0445 0.545334 -0.0794778 -0.727637 
19 2 6.1097 6.35989 1.83777 -1.34948 0.0812737 0.964921 
141 2 7.33747 8.67177 1.96621 -0.0116815 -1.38419 0.81276 
617 2 6.95998 6.96083 4.05269 1.13627 0.296992 -1.14823 
621 2 7.30947 -0.419443 6.05233 -0.790981 1.16769 0.0328713 
745 1 9.84495 8.88918 3.9109 -0.325609 -1.6269 0.194626 
628 2 9.57269 6.0653 4.118 -0.57508 -0.782177 0.395757 
31 2 11.0846 6.10727 2.33367 -0.712097 -0.209337 -1.81461 
24 2 8.34786 6.25017 2.06988 1.49699 0.116893 0.286578 
2406 2 0.015246 2.51834 16.0354 -0.494153 0.498406 0.653344 
131 2 0.579095 10.6918 2.04894 -0.211214 0.55653 0.674437 
723 2 1.95075 9.89872 3.89773 -0.203061 0.128877 1.10239 
722 1 2.01508 12.821 4.0747 -0.532379 0.232012 -0.241029 
128 2 3.46315 10.6919 2.1145 -0.255924 0.245124 0.185076 
147 2 12.4806 10.1542 0.421809 -0.883369 -1.40282 -2.06184 
1825 1 9.9215 -0.222956 11.5099 0.803588 -0.182199 0.877383 
738 2 4.83992 11.672 4.05465 0.243627 -1.29332 -0.256915 
142 2 4.63101 12.8226 1.86616 0.452922 -0.300495 0.51341 
143 2 5.89346 10.5688 1.87495 0.37291 1.01333 0.156373 
735 2 7.30736 10.4035 3.95467 -0.738926 -0.678736 0.781287 
734 1 7.40157 13.141 4.20044 -0.351268 -0.959031 0.388669 
10 2 -0.332815 4.13144 1.7993 -0.561984 -0.162796 0.305551 
1924 2 -0.435446 14.4815 11.9439 -0.405994 -1.2609 1.02886 
750 2 10.0399 11.5881 4.10518 -0.520562 -0.622393 0.740597 
155 2 11.0858 10.7614 2.11838 -0.402529 -0.0466655 0.00140161 
154 2 9.645 12.8293 2.23012 0.139835 1.43985 -1.43464 
140 2 8.60855 10.7645 2.00351 -0.605738 -0.155577 -0.600181 
625 1 9.69142 -0.343639 3.85881 1.07191 0.210331 -0.00560889 
1955 2 11.0316 10.9255 14.0902 0.482848 0.218438 1.72739 
1954 2 9.37983 12.8744 14.2932 1.24518 0.349832 -1.50018 
611 2 0.503946 1.62851 5.76107 0.871307 -0.150584 0.729016 
1211 2 1.13442 1.92078 10.0867 0.132344 0.234266 2.69921 
1203 2 1.68228 1.02264 8.17422 2.21052 -0.653356 -1.88243 
1202 1 2.36894 4.18592 8.14999 -1.054 -1.50788 0.0118641 
608 2 3.3308 1.57606 6.31062 -0.371126 0.223205 -0.369725 
1208 2 3.73596 1.69946 9.94886 -1.71015 -0.369868 0.907185 
1926 2 -0.333362 11.6092 12.0297 -0.208594 -1.18245 1.15354 
1947 2 12.2265 10.2606 12.2406 0.374919 -1.05759 -0.346575 
3 2 1.88343 0.755514 0.288009 0.871252 0.261294 -0.783999 
1218 2 4.99599 2.33296 8.1667 -1.25431 0.522949 -0.85809 
622 2 4.44175 3.79786 6.10886 0.310045 0.344726 -0.129752 
1222 2 4.73726 3.94156 10.072 -0.204538 0.558765 0.60419 
1223 2 6.07772 1.76666 10.1723 0.732399 -0.47272 0.803017 
623 2 6.12995 2.0203 6.27088 -0.458354 -0.751333 -0.466484 
1215 2 6.96825 0.773232 8.22667 1.37036 0.289487 -0.416027 
1214 1 7.13235 3.96935 8.63286 0.801983 1.0313 -0.672306 
1230 2 9.43113 2.39315 8.2807 1.79821 1.26879 -1.64633 
635 2 11.0369 1.59829 6.19475 -0.961056 1.24926 -0.547191 
1235 2 11.2047 2.36638 9.93581 -0.278054 -1.79389 0.337964 
634 2 9.32043 4.03953 6.26454 0.590094 -1.17877 -0.323122 
1234 2 9.81894 4.04163 10.2014 -1.54151 1.90465 -1.54078 
620 2 8.56189 1.68331 6.26762 0.339254 0.0512052 -0.156361 
1220 2 8.58558 1.70676 10.1256 -0.880983 0.422805 1.33847 
2522 1 1.9067 13.2019 15.6627 0.437507 -0.528774 0.421854 
607 2 0.708234 6.14299 6.014 0.342491 -0.15834 0.119687 
1207 2 0.603767 6.02268 9.97583 -0.110601 0.370367 -0.218001 
729 2 1.78655 8.4581 5.93216 0.560833 0.479983 1.23579 
1329 2 1.88782 8.29193 9.89006 0.996758 0.135066 0.516043 
1205 2 2.02579 6.84092 7.96934 -0.124126 0.60557 -0.0666824 
1212 2 3.5104 6.13274 10.0452 0.0158712 0.706801 0.0911079 
1921 1 -0.357143 8.36019 12.0625 -0.854867 0.93546 0.0979117 
612 2 3.30839 6.16932 5.96617 0.0344754 -0.224356 0.827766 
1333 1 4.33819 8.73262 7.51956 0.0138618 -2.06851 0.595098 
1216 2 4.7856 5.6591 7.93591 0.23121 0.13065 0.359462 
619 2 5.89817 6.52831 6.01795 -0.883918 -1.11389 -0.113423 
1219 2 5.99745 6.30117 10.1514 -0.787146 -1.02759 -0.0376421 
741 2 7.17264 8.59993 5.8489 1.04342 0.0677666 0.354112 
1341 2 6.84287 8.39849 9.90295 0.906296 -0.736608 1.81039 
1217 2 7.05384 7.0857 7.90007 0.130652 0.0334137 1.20254 
1345 1 9.93554 8.31084 8.15556 -1.04136 0.979862 0.427719 
1228 2 10.1119 5.36672 8.07651 -0.660738 0.149406 0.940106 
631 2 10.8943 6.50301 6.08939 0.984086 -0.0277556 0.884591 
1231 2 11.2078 6.08561 10.1713 -1.24808 0.393057 -0.749339 
624 2 8.64873 6.23573 6.3436 -1.80246 0.678942 -0.5899 
1224 2 8.53552 6.33474 10.0674 -0.305142 -0.139675 -0.321221 
1346 1 12.2911 13.0181 8.43985 0.357228 -0.138929 -0.0965172 
1940 2 8.75485 10.6194 14.0331 -1.99608 -0.805076 -0.0642592 
2427 2 12.1984 1.03562 16.1882 -0.0436536 -0.0211853 -0.922475 
145 1 10.1575 8.45568 0.198696 -1.25827 -0.526103 0.0627816 
731 2 0.861161 10.8724 6.10887 0.512197 -0.403117 -0.553607 
1331 2 1.02362 10.7458 10.0045 -0.541311 -0.00806885 0.474635 
1323 2 1.88802 9.94049 8.09089 0.818606 0.289172 -1.18727 
1322 1 2.31001 13.0559 8.18158 -1.59202 -0.776202 0.704089 
728 2 3.39239 10.9451 5.97293 -1.22634 -1.03242 -0.262974 
1328 2 3.71481 10.3651 10.1363 -1.82137 0.39865 -0.691048 
1935 2 7.14453 9.77951 11.9513 0.804417 0.281153 0.800054 
1335 2 7.0866 9.6081 8.17098 0.654997 1.54341 -2.57365 
1338 2 4.65815 11.3078 8.04181 -0.388074 -0.052353 1.40621 
742 2 4.64767 12.7892 6.19293 -0.150598 1.62134 -1.06726 
1342 2 4.93772 13.0054 9.97296 -0.17294 -0.236957 0.250651 
1343 2 6.03104 10.6383 10.0852 -0.544179 1.19613 -0.513736 
743 2 5.88391 10.5798 6.03541 0.46182 0.591287 -0.52482 
1334 1 6.85174 12.7325 7.58847 2.54169 0.970342 0.279513 
1934 1 7.21623 12.8227 12.0529 -0.0404364 -0.81347 -0.0837824 
1350 2 9.62552 11.5458 8.22125 0.860869 -0.202863 -1.78911 
755 2 11.2424 10.799 6.17837 -0.941169 1.32453 0.439994 
1355 2 10.9997 10.6199 10.1448 0.0633676 0.64366 -0.249201 
754 2 9.75538 12.9733 5.98113 0.367086 0.0515821 1.2703 
1354 2 9.64916 12.8579 10.0733 -0.195065 0.22174 0.93512 
740 2 8.72233 10.676 6.16557 -0.513713 -0.304885 -0.432588 
1340 2 8.44215 10.6769 9.96865 -0.300027 -0.362574 0.840953 
1936 2 4.70556 14.3551 12.0893 -0.217651 -0.250981 -0.0967594 
2414 1 7.31853 4.20495 16.0958 -0.227372 -1.95516 -0.355475 
14 1 7.07512 3.92319 0.090539 1.09926 -0.572778 0.0822538 
2415 2 7.34175 1.1277 15.9547 -0.471572 0.47628 0.585488 
1811 2 0.817084 1.64282 14.0016 0.125478 0.883728 -0.483037 
1803 2 2.34575 1.02111 11.8957 -0.237063 0.057318 1.06849 
1802 1 2.08247 4.04325 12.0054 0.118824 -0.110669 -0.0321426 
1808 2 3.29304 2.02339 13.9221 -0.85911 -0.326295 0.68863 
1348 2 9.89758 14.2803 8.12617 -1.51404 -0.664603 -2.65431 
1818 2 4.96449 2.51447 12.1082 -0.960948 0.91583 -0.348922 
1822 2 4.41106 4.1609 14.125 0.762956 -0.923456 0.271498 
1823 2 5.57781 1.77938 14.2691 1.90971 0.201174 0.296507 
1815 2 7.46152 1.06563 12.0591 -0.492405 0.964611 0.950748 
1814 1 7.23346 4.13585 12.4041 -0.481316 -0.0797163 -0.0255926 
1923 2 1.80324 9.79068 12.0365 1.1858 0.559736 -0.290481 
2430 2 9.86745 2.51744 16.0434 0.37803 0.142176 -0.340688 
1830 2 9.77452 2.90861 12.1214 -0.208167 -1.53877 1.00485 
1835 2 11.2173 1.81027 14.0944 -0.978374 0.596304 -0.705358 
1834 2 9.81296 4.25196 14.1936 -0.164045 -1.6682 0.121904 
1820 2 8.63588 1.82554 14.0875 0.604966 0.932035 -0.889145 
1943 2 5.98657 10.6009 14.0008 0.241121 -0.0513216 0.252966 
1226 1 12.3608 4.03659 7.83924 0.852291 -0.451286 -0.729748 
736 2 4.9007 13.9849 4.0191 -0.887071 1.78093 0.138799 
1922 1 2.13114 12.8435 11.5428 0.339145 0.177943 0.305014 
1942 2 4.73817 12.7398 14.2468 -0.524579 0.596489 -1.27549 
1807 2 0.771784 6.01591 14.2169 0.811579 1.22827 -0.505665 
1812 2 3.10601 6.21825 13.9958 0.282422 0.554465 0.489718 
1805 2 1.93213 6.93588 11.8719 0.694668 -0.199104 0.491091 
1929 2 2.214 8.45302 13.9665 -0.584165 -0.0903935 0.756882 
1928 2 3.39925 10.6552 13.8912 -0.435383 0.01847 0.272288 
1931 2 0.820064 10.9223 14.0328 -0.0886795 -0.571702 -0.6376 
1816 2 4.71471 5.7542 12.4281 0.152631 -0.302196 -2.66251 
1941 2 7.48692 8.54888 14.101 -0.705176 -0.281381 0.300947 
1817 2 7.20495 7.27829 12.1249 0.098852 -1.21428 -0.314079 
1933 1 4.67717 8.50973 11.9822 -1.05536 -0.148539 0.569879 
1819 2 5.757 6.19178 14.3957 0.765212 0.776974 0.514878 
1210 2 -0.425417 3.86785 10.2928 -0.00114509 0.595604 -0.157222 
1828 2 9.67648 5.61944 12.0681 0.289314 -0.004045 0.405492 
1945 1 9.74833 8.56143 11.7517 0.668417 -0.270321 0.329815 
1831 2 11.2231 6.03513 14.1014 0.270732 1.67046 0.171319 
1824 2 8.56712 6.31812 14.1405 -0.404498 0.756282 -0.601678 
629 2 12.2445 6.56236 4.28333 0.856233 2.01074 0.197263 
1938 2 4.51764 11.6559 12.0471 0.952199 -0.174726 -0.1967 
1206 2 -0.147305 2.47815 8.40269 -1.79 0.561634 -2.22431 
1227 2 12.1564 0.914112 8.22078 1.29613 0.427523 0.236379 
1821 2 7.29278 -0.115927 14.0839 -0.436606 -1.40318 -0.676468 
626 1 11.9861 4.06002 4.57282 1.1842 -0.974621 0.0476348 
2402 1 2.26625 4.25795 16.1818 -1.10568 -0.278932 -0.335019 
604 2 0.0937374 5.40608 3.73617 -1.09691 -0.297135 1.88639 
606 2 -0.503354 2.78188 3.89237 0.793132 -0.99786 -0.781534 
753 2 12.0092 8.66488 6.08079 1.4906 -0.977688 0.0240898 
26 1 12.2522 3.78709 0.090868 -0.395903 -0.596235 0.359766 
1353 2 12.5292 8.63601 10.1458 -0.541494 -0.547658 0.708989 
627 2 12.3907 0.605317 3.99951 -0.100765 1.00459 0.265243 
1826 1 12.2615 4.1941 11.9878 0.118959 -1.57392 1.03757 
146 1 12.2564 12.8618 0.569634 -0.0380344 0.544265 -0.791689 
29 2 12.3546 6.37722 0.0571476 -0.412532 1.49338 2.60479 
6 2 -0.181755 2.29913 0.214203 -0.203693 -0.0245021 -0.379156 
2403 2 2.17722 1.30698 16.0674 0.994776 -0.730927 -0.305126 
2533 1 4.60885 8.46243 16.0383 1.36303 0.0006776 -0.0956241 
2536 2 4.22187 14.5971 15.8524 0.432092 -0.361735 0.436336 
15 2 7.6993 0.872401 0.346955 -1.4817 -0.0768453 -0.0198346 
150 2 9.88302 11.4424 0.0762145 -0.760408 0.461001 0.333744 
2411 2 1.36654 2.32538 18.0782 -1.75189 -0.375275 0.451843 
3003 2 2.00295 1.31596 20.1152 0.232719 -1.27602 0.335699 
3002 1 2.35265 3.93721 20.6327 0.574698 1.19527 -0.450898 
2408 2 3.64313 1.84566 18.3333 0.481642 -0.397705 -0.688922 
3121 1 -0.429569 8.50688 20.1297 0.256084 -0.562063 0.400023 
4321 1 -0.383154 8.69432 28.1375 -0.496689 -0.28928 0.153708 
3633 2 12.3676 -0.477549 26.1115 0.252551 -0.262963 1.86353 
3018 2 5.14083 2.34685 20.1937 -1.07715 0.916154 -0.872699 
2422 2 4.56201 4.03741 18.4541 0.26736 -0.900869 -1.16993 
2423 2 6.31291 1.96169 17.8796 -1.83242 -0.106638 0.831972 
3015 2 7.35381 1.12428 19.998 0.162703 -0.200996 -0.150573 
3014 1 7.46325 3.94298 19.9415 -0.580087 0.570228 0.179303 
3001 1 -0.551471 -0.376724 19.9015 1.10241 0.0479404 0.202985 
4326 2 -0.423834 11.6896 27.9266 0.471224 0.291114 1.4801 
3030 2 10.201 2.6312 20.0737 -1.18879 -0.147551 0.566887 
2435 2 11.0242 1.72063 18.106 -0.073741 0.00708373 -0.280819 
2434 2 9.82001 3.89006 18.0699 -0.139995 0.733745 -0.241067 
2420 2 8.61693 1.69152 17.884 0.625009 -0.186936 1.078 
3609 2 2.05507 -0.427215 26.0609 0.140005 0.555175 0.237314 
2548 2 9.37574 14.3123 16.1789 0.350062 0.299665 -0.102162 
2530 2 -0.448239 13.0459 18.3555 -0.392497 -0.31802 -0.65047 
2417 2 7.38267 6.74593 16.308 -0.939758 1.83727 -0.959229 
4350 2 9.78748 11.645 28.1897 0.0332466 -0.232927 0.813678 
2407 2 0.916594 6.15304 18.1099 0.821363 0.972365 0.174381 
2529 2 2.46564 8.47501 18.3158 -1.003 0.652387 -1.2864 
3005 2 2.17743 6.96776 20.1067 -0.60025 -0.378598 -0.169159 
2412 2 3.37216 6.25768 18.2018 0.376348 -0.747635 0.051289 
2534 1 6.94175 12.9818 16.1457 -0.222729 -0.426187 0.487497 
3133 1 4.72681 8.36384 19.8302 0.0865367 0.494901 0.580632 
3016 2 4.89829 5.5154 20.1141 0.070934 -0.15413 1.24923 
2419 2 5.87104 6.10499 18.1325 1.38631 0.889993 -0.0551707 
2541 2 7.27149 8.75513 18.0689 -0.236735 -0.708204 0.868834 
3017 2 7.443 7.28168 20.0961 -0.250071 -0.654915 0.0616785 
3625 1 9.87558 -0.367481 24.0848 -1.0137 -0.415944 -0.389206 
3145 1 9.99552 8.53169 19.9447 -0.52242 -0.0361098 0.327248 
3028 2 9.83466 5.36533 20.1427 0.567498 0.522091 0.00288781 
2431 2 11.1927 5.97508 18.1902 -0.637354 0.915534 -0.106852 
2424 2 8.62648 6.23662 18.1479 0.428095 -0.147633 1.2335 
4206 2 -0.515172 2.23406 28.1887 0.857304 0.152843 0.204844 
3025 1 9.92948 -0.396949 20.426 0.145788 -0.733156 -0.159245 
3126 2 -0.611067 11.2712 20.2771 1.25936 0.827933 -1.57832 
2531 2 0.675814 10.9883 17.9612 0.99158 0.219205 0.591129 
3123 2 1.8678 10.014 20.0528 0.448825 0.710237 0.4804 
3122 1 2.02575 13.2623 20.1119 -0.944109 -1.511 0.212083 
2528 2 3.23173 10.9502 18.1694 -1.45864 -0.31161 -1.69491 
3153 2 12.574 8.62974 22.1963 -0.844967 0.27695 -0.102478 
4225 1 9.65246 -0.0866391 27.8219 0.70376 -1.06556 0.228414 
3138 2 4.50846 11.2816 20.0111 0.130454 0.974935 2.13462 
2542 2 4.51374 13.2186 17.8889 -0.370089 -1.26374 0.328582 
2543 2 5.60806 10.8024 18.0928 1.82935 -0.400731 -0.461418 
3135 2 6.98744 9.80799 20.3219 0.697309 1.13846 -1.22949 
3134 1 7.13284 13.0234 20.0181 0.053947 -0.866261 -0.16755 
2405 2 2.36975 7.14547 16.1745 -1.10512 -0.183588 -0.106523 
4330 2 -0.44218 13.0579 30.092 -0.0298511 -0.213265 0.0595979 
3150 2 10.042 11.7829 20.2353 -0.462985 -0.0766147 0.814625 
2555 2 11.0424 10.8589 18.3039 0.499324 -0.242722 -1.1225 
2554 2 9.72434 13.1279 18.1879 -0.316326 -0.6722 0.141029 
2540 2 8.66904 10.8316 18.394 -0.992445 -0.0663075 -0.219195 
4355 2 10.9404 10.5335 30.3071 0.483156 0.307753 -0.896883 
2421 2 7.55646 -0.526542 18.2421 -0.425713 0.600914 -0.250401 
2545 1 9.75234 8.45963 16.1886 1.2696 0.882071 0.0816127 
4334 1 7.06758 13.0437 28.3258 0.886391 -0.390853 0.0726883 
2428 2 9.81344 5.78026 16.0983 0.535519 -0.768752 0.635183 
3011 2 0.940868 2.21204 22.1536 0.742363 -1.63036 0.434936 
3611 2 0.657722 2.01603 26.0116 1.33088 -0.476671 1.71103 
3603 2 1.91632 1.13894 24.204 1.17994 0.565112 -1.55355 
3602 1 2.33649 4.37953 24.2637 -0.339866 -0.722434 -0.253865 
3008 2 3.61592 1.53275 22.1713 -0.782207 1.07964 -0.861375 
3608 2 3.2996 1.82134 26.0264 -0.122057 -0.154346 0.926713 
4210 2 -0.200491 3.9642 29.9486 -0.643141 0.243904 0.677467 
3618 2 4.66103 2.09457 24.1722 0.0559487 1.34636 -1.3901 
3022 2 4.87973 3.8011 22.278 0.123651 -0.28328 -0.523228 
3622 2 4.62731 4.08209 26.1553 -0.232102 0.31439 -0.663175 
3623 2 5.92188 1.8427 25.9794 0.514402 -0.456516 1.6533 
3023 2 6.07419 1.51881 22.0295 0.133248 1.22347 1.12876 
3615 2 7.23224 1.12695 24.0409 0.368705 -0.579958 0.284119 
3614 1 7.2239 4.00996 24.1954 0.88953 -0.335823 -0.0990811 
4805 2 2.11531 6.79095 32.3226 0.0807094 0.262143 -1.05564 
2550 2 9.32019 11.5379 16.152 1.21199 -0.303312 1.36563 
3630 2 10.0058 2.48107 24.1268 -0.775869 0.404149 -0.256857 
3035 2 11.1986 2.04765 22.1793 1.1185 -0.876116 -0.0231846 
3635 2 11.0735 1.70275 26.0671 0.651107 0.0189063 0.497581 
3034 2 9.77349 4.04054 22.1835 0.556624 -0.328678 0.359705 
3634 2 9.94944 3.95735 25.9886 -0.290692 0.592034 -0.163884 
3020 2 8.72705 1.73339 21.9513 -0.429312 0.613688 0.749764 
3620 2 8.43382 1.98463 26.0751 0.0127653 -0.164784 -0.413674 
4354 2 9.62426 12.9854 30.3889 0.392274 -0.0557622 -1.04971 
4340 2 8.42452 10.6008 30.198 0.0121322 0.0995785 -0.988946 
3007 2 1.154 6.43819 22.1225 -1.22285 -0.955735 0.397989 
3607 2 0.751858 6.39714 25.9584 0.835889 0.84225 0.295262 
3129 2 2.59564 8.34478 22.05 -0.319013 1.27982 -0.235117 
3729 2 2.25563 8.69736 26.2144 0.176459 -0.689477 -1.58112 
3605 2 2.08623 7.39871 24.1466 0.318474 -0.413175 0.438535 
3012 2 3.64073 6.20334 21.9346 -0.486885 0.0393208 1.43959 
3612 2 3.49934 6.54908 26.0073 0.731613 -0.680586 -0.490016 
3733 1 4.77966 8.79977 24.3922 -0.0159492 -0.526063 -1.01404 
3616 2 5.03426 5.51927 23.9699 -0.900188 0.696593 0.836139 
3019 2 5.94275 6.53158 22.0561 1.3755 0.242643 -0.393964 
3619 2 5.99674 6.42954 26.0214 0.0867191 0.0725018 0.185666 
3141 2 7.57027 8.63758 22.1917 -0.487127 -0.354646 0.614738 
3741 2 7.22659 8.66225 25.8386 0.614942 -0.418478 0.891334 
3617 2 7.33934 6.99763 23.9975 -0.781181 0.0171852 0.0806687 
4335 2 7.81411 10.0676 27.9529 -0.565085 -0.657434 0.115399 
3745 1 9.6996 8.65374 24.2136 0.64146 0.0729471 0.406531 
3628 2 10.1655 5.63807 24.1011 -0.813708 -0.901718 1.3522 
3031 2 10.9827 6.49498 22.2388 0.962776 0.15565 -1.67661 
3631 2 11.3817 6.22048 26.1713 -1.13632 -0.856839 0.430743 
3024 2 8.42861 6.01952 22.0833 0.305949 0.986616 -0.120456 
3624 2 8.56277 6.33067 25.9091 0.380914 -0.591751 0.190652 
3610 2 -0.250834 4.21955 26.4265 -0.190443 -0.678057 -0.877988 
3131 2 0.754688 11.0313 22.1556 0.179402 -0.635644 0.126384 
3731 2 0.842083 10.6079 26.1294 0.0417562 0.593105 -0.155834 
3723 2 1.94546 9.88795 24.0652 0.369157 0.148241 -0.195004 
3722 1 1.97684 12.8467 23.9631 0.860916 0.378393 0.466299 
3128 2 3.28379 10.7113 22.0923 -0.163494 0.116578 -0.156844 
3728 2 3.51367 10.8961 26.22 -0.305018 -0.020064 -0.60222 
2538 2 4.60765 11.2509 16.0172 -1.06433 0.0541034 0.281814 
2409 2 2.27264 -0.259133 18.1303 -0.121917 -0.0724754 -0.147812 
3738 2 4.91506 11.783 24.1839 -0.444751 -0.370514 0.369358 
3142 2 4.87847 12.9264 21.9285 -0.573233 -0.295622 1.30089 
3742 2 4.87284 13.1103 26.2973 -0.284184 -0.443917 -0.372349 
3743 2 6.13782 10.8178 26.36 -0.315457 0.911808 -0.83495 
3143 2 5.71971 10.6572 22.1757 0.849009 -0.016738 0.0807815 
3735 2 7.50752 10.4465 24.15 -1.53372 -0.501627 1.14743 
3734 1 7.28488 13.3221 24.1435 -0.0117661 -0.392351 0.0432455 
3721 1 -0.497092 8.52905 23.6698 0.117791 0.270704 -0.67994 
3750 2 10.0648 11.7419 24.1519 -1.44754 -0.0839838 1.33024 
3155 2 10.9163 10.6765 22.3001 0.653948 -0.277248 -0.836047 
3755 2 11.1072 10.45 26.4104 0.130132 1.30007 -0.915578 
3154 2 9.6379 13.1659 22.2319 0.155797 -0.0730643 -0.602667 
3754 2 10.058 13.2146 26.1764 0.1761 -0.630161 0.142613 
3140 2 8.45351 11.0776 22.2574 0.4795 -0.367699 -1.9465 
3740 2 8.56206 11.412 26.1568 0.210716 -0.943707 -0.738864 
4922 1 2.04097 12.9289 31.9728 0.353237 0.358552 -0.36248 
4802 1 2.31376 3.78176 31.9508 -0.604407 0.485936 0.176514 
4211 2 0.620464 1.67102 30.1419 0.863472 0.261144 0.117674 
4203 2 1.99119 1.07414 28.0033 -0.197128 0.169134 0.498817 
4202 1 1.99253 4.13613 28.0276 1.03241 -1.40053 0.228767 
4208 2 3.49301 1.74011 30.1629 0.149498 0.0577595 -0.644767 
4226 1 12.3242 3.82601 27.9215 -0.224052 0.786552 0.653886 
4322 1 2.28546 13.0705 27.9517 -0.605299 -0.166075 0.0496124 
4218 2 4.68527 2.49161 27.9845 -0.440418 -0.492139 0.856353 
4222 2 4.84218 4.08906 30.007 -0.569671 -0.917641 -0.156285 
4223 2 6.11323 1.90205 30.0671 -1.95563 0.185463 -0.0227043 
4215 2 7.26075 1.25881 28.1974 -0.520664 0.0348093 -1.25854 
4214 1 6.87307 4.3188 27.8915 1.31912 -0.336804 -0.0456539 
3006 2 -0.208775 2.87327 20.1667 -0.0682389 -0.937419 -1.74537 
3136 2 4.36534 14.2995 20.1772 0.955516 1.10259 -1.31504 
4828 2 9.94943 5.61426 32.1694 -0.480923 0.0360782 -0.405195 
4818 2 4.89559 2.65148 32.1959 0.173357 -0.891383 -2.41609 
4220 2 8.48955 1.89645 30.1737 1.46295 0.266442 -1.37904 
4230 2 9.38969 2.88413 28.0912 0.106218 -0.43971 0.434019 
4235 2 10.8806 1.54373 29.9403 0.273112 1.37991 0.135005 
4234 2 9.74924 4.12514 30.1256 0.146854 -0.506842 -0.512347 
4331 2 0.693067 10.586 30.182 -0.632967 0.973821 -0.15921 
4328 2 3.06589 10.5378 30.0195 1.31134 0.52307 0.109018 
4343 2 5.90025 10.7389 30.3742 -0.309115 0.124556 -1.41304 
4323 2 1.9443 9.82133 28.1192 0.980162 1.05037 0.753863 
4207 2 0.965291 6.38123 30.0782 -0.469363 -1.17426 2.17773 
4329 2 1.83711 8.42863 30.2047 1.04962 1.31256 0.286646 
4205 2 2.08494 6.9626 27.7927 0.328554 0.635426 2.05517 
4212 2 3.31795 6.55246 30.1351 0.544358 -0.201927 0.237761 
4935 2 7.16534 9.77429 32.0385 0.703556 -0.396007 0.338769 
4341 2 7.19679 8.27411 29.9304 0.0972208 2.01313 0.960373 
4219 2 6.02946 6.23446 29.8079 -0.345986 0.161757 0.899326 
4216 2 4.22186 5.67575 28.2084 0.766437 0.0463737 -1.10198 
4333 1 5.02461 8.7068 27.9983 -1.14088 -0.773193 0.561084 
4217 2 7.58881 7.12141 27.9472 -0.577165 -0.342558 -0.473217 
4338 2 4.56426 11.4219 28.3068 0.446319 0.275648 0.16525 
4324 2 -0.427084 14.5478 28.1384 -0.604141 -0.932621 -0.268886 
4231 2 11.0415 6.061 30.1189 1.14535 1.2546 -1.0782 
4224 2 8.70815 6.55835 30.1963 0.259639 -1.3503 -1.29744 
4345 1 9.96629 8.29608 27.7883 0.111789 0.720503 0.48697 
4228 2 9.72265 5.33268 27.9452 -0.198715 0.663556 0.535966 
4342 2 4.87887 12.9495 30.2197 -1.03692 0.411737 0.335573 
4825 1 9.59948 -0.418382 32.0863 0.428832 -0.125829 -0.227663 
4945 1 9.89655 8.54091 32.0884 -0.430505 -0.429246 -0.29268 
2416 2 4.63875 5.29138 16.3828 0.221756 0.257488 -1.16333 
3027 2 12.451 1.24616 20.0018 -0.38051 -0.380311 1.07217 
4923 2 2.29958 10.1967 32.1984 -1.1916 -0.743696 0.227149 
4346 1 12.2956 13.0753 28.2181 0.247165 -0.981203 0.116644 
4816 2 4.62029 5.45092 31.9163 0.237015 0.268505 0.32034 
4830 2 10.1937 2.61701 32.0308 -0.388218 -0.540655 0.230213 
4815 2 7.31733 1.34941 31.9569 -0.835153 -1.19784 2.63346 
4803 2 2.02644 0.884268 31.9699 0.331323 -0.0670924 1.02508 
4347 2 12.6064 9.646 28.1659 0.0162769 1.95907 1.48138 
2553 2 12.4738 8.66267 18.2077 -0.690695 0.30951 0.61011 
2546 1 12.0723 13.0711 16.268 -0.483308 0.707613 -0.135329 
3029 2 12.3671 6.88865 20.1064 -0.0033012 0.59461 0.599712 
3004 2 -0.17768 5.52577 20.0773 -0.306983 -0.0547414 0.884155 
2521 1 -0.170407 8.6836 16.6201 -0.679616 -1.20852 -0.46642 
4817 2 7.45854 6.98187 32.129 -0.752757 0.088864 -0.330795 
4950 2 9.42568 11.4028 32.1697 1.1682 0.229397 -0.29787 
4814 1 7.58199 4.12453 31.7996 -1.29593 0.481265 0.379873 
4806 2 -0.458272 2.59419 32.1924 -0.0698994 -0.0601043 0.0211045 
2418 2 4.59603 2.65786 16.152 -0.146336 -0.0882493 0.80912 
2523 2 1.99315 10.1872 15.8718 1.15089 -0.090163 1.03213 
2535 2 7.51584 9.89818 16.1189 -1.14788 1.2473 -0.615403 
4811 2 0.83851 1.62398 34.1893 0.192668 0.0894144 -1.06475 
5403 2 2.19026 0.874389 36.067 0.0407074 0.133219 0.766981 
5402 1 2.16379 3.91185 36.2491 1.21401 -0.25828 -0.299597 
4808 2 3.43609 1.5008 33.962 0.169944 0.582124 0.428793 
4921 1 -0.333344 8.62062 32.4163 -0.0790076 -1.40074 0.0465005 
5418 2 4.79375 2.61826 35.9645 -0.314426 -0.879086 0.845507 
4822 2 4.83249 3.89541 34.0123 -0.55344 1.7438 0.655432 
4823 2 6.0113 1.79287 34.0446 0.835317 -1.0437 0.0532704 
5415 2 7.08053 1.09319 36.1238 0.7219 -0.482055 -0.230967 
5414 1 7.18398 3.98488 35.928 1.04888 0.604028 0.190129 
5425 1 9.87516 -0.287174 36.348 0.147154 -0.881552 -0.0638856 
5430 2 9.78587 2.53054 36.1177 0.00511673 1.00748 1.59915 
4835 2 11.2228 2.13542 34.3265 0.374756 -1.00571 -1.21815 
4834 2 9.68367 4.0086 33.9707 0.656476 0.559781 0.609498 
4820 2 8.6759 1.86139 34.2364 -0.913057 -0.817845 -1.41168 
6610 2 -0.330913 3.84065 46.2852 -0.176426 0.234412 0.559182 
6606 2 -0.234289 2.42561 44.2471 -0.486127 -0.438637 0.790399 
6750 2 9.62602 11.5141 44.1215 1.24987 -0.360615 -0.160851 
4807 2 1.05975 6.06601 34.3079 -1.49092 -0.34761 -1.98218 
4929 2 2.22617 8.26073 34.3373 0.0900881 0.353898 -1.30922 
5405 2 2.07501 6.73969 36.1292 0.0432118 0.741583 1.32489 
4812 2 3.46986 5.98644 34.1564 0.12848 0.139268 -0.201434 
6004 2 -0.20646 5.22524 40.1388 -1.41153 -0.721969 0.691814 
5533 1 4.65023 8.39516 36.1445 0.0583062 -0.00901351 -0.369057 
5416 2 4.91865 5.66288 36.0474 -0.647835 -0.68529 0.11683 
4819 2 5.87192 6.15518 33.8335 0.809756 0.374399 0.464296 
4941 2 7.18489 8.36973 33.9851 0.0581927 0.0138935 1.11163 
5417 2 7.24138 7.08874 36.1119 -0.841594 -0.575444 -1.14212 
6010 2 -0.64192 3.89565 42.4649 1.42014 -1.02819 -1.28341 
5545 1 9.65034 8.15567 36.2481 0.430362 1.49247 0.106051 
5428 2 10.0485 5.42408 35.9549 -0.27726 -0.786811 0.693835 
4831 2 11.3505 6.11099 33.9891 -0.355778 -0.709958 0.150671 
4824 2 8.77782 6.36966 34.1356 -0.711239 -0.238894 -0.185767 
6613 1 4.71428 -0.119074 44.4116 -0.406206 -1.41953 -0.539216 
4931 2 0.801892 10.7573 34.2347 1.20797 -1.42138 -0.306123 
5523 2 1.91029 9.80647 36.094 -0.415991 0.112939 1.09581 
5522 1 1.9111 12.8425 37.0209 1.2847 -0.784538 -1.79786 
4928 2 3.21663 10.6271 34.3195 0.736534 0.0218476 0.0339587 
5404 2 -0.223504 5.54968 36.2348 -1.57851 -0.366282 -1.45493 
6755 2 10.8107 10.4856 46.4238 1.23041 0.405911 -1.23106 
5 2 1.98163 6.74398 48.1396 0.234253 0.411972 -0.714944 
6006 2 -0.122009 2.50367 40.3118 -1.38356 0.272691 -0.29237 
6625 1 9.9245 -0.288904 44.0352 -1.13474 -0.735333 0.455075 
5538 2 4.68162 11.3251 36.2278 1.2878 0.744744 -2.01814 
4942 2 4.09095 12.8545 34.3041 0.677876 -0.59311 0.873079 
4943 2 5.97294 10.514 34.0706 -1.00455 0.205698 0.313234 
5535 2 7.1185 9.86623 36.1024 0.545646 0.409852 -0.32397 
5534 1 7.24101 12.8324 35.6884 -0.00622739 0.642291 0.124493 
6013 1 4.62779 -0.492963 40.3622 0.108889 0.354593 0.296815 
5550 2 9.7964 10.9984 35.9781 0.0027874 0.722484 0.900417 
4955 2 10.91 10.312 34.0398 0.613736 0.120644 0.0874215 
4954 2 10.2688 12.571 34.0894 -0.831293 0.40914 1.41544 
4940 2 8.41006 10.5476 34.0127 -0.054706 -0.666933 1.22364 
5413 1 4.71455 -0.471845 36.3941 -0.458131 0.404915 -1.02614 
4934 1 7.11846 12.7859 32.3539 0.0139443 0.0831817 0.51042 
6121 1 -0.564985 8.26274 40.0891 0.589365 0.740702 0.412576 
5410 2 -0.30075 3.83159 38.0869 -0.687373 0.014837 0.838641 
4930 2 -0.194046 12.6773 34.075 -1.46855 2.15611 0.501551 
5411 2 0.979625 1.78625 38.2767 0.666621 -0.592416 -0.289965 
6011 2 1.07729 2.09023 42.2709 -1.31353 -1.21159 0.810623 
6003 2 2.24655 0.994273 40.4204 -0.330607 -0.14901 -0.878793 
6002 1 2.35744 3.88586 40.3517 -0.748011 1.46016 -0.881656 
5408 2 3.77187 1.90415 38.065 -1.7718 -0.20282 0.122059 
6008 2 3.33907 1.96186 42.295 1.90254 -0.509395 1.06581 
6754 2 9.4071 12.7281 46.1844 1.97017 0.733284 0.378034 
6018 2 4.63219 2.43395 40.2597 1.16012 -0.851934 -0.949803 
5422 2 4.82624 4.16367 38.0366 -0.255804 -0.569823 -0.323185 
6022 2 4.81479 3.96918 41.937 0.417808 0.451182 2.77858 
6023 2 6.21057 1.94362 42.2687 -1.36233 0.322748 0.0173417 
5423 2 6.04211 1.74941 38.1885 0.440763 0.747822 0.141164 
6015 2 7.08054 1.034 40.2607 0.481447 0.0514913 0.0584476 
6014 1 7.35071 4.05378 40.011 0.359748 -0.505213 0.270996 
6730 2 -0.314459 13.0903 46.0866 -0.426113 -1.1266 0.447527 
6740 2 8.48302 10.6364 46.0035 -0.664805 -1.30553 1.72832 
6020 2 8.56472 1.65313 42.3081 0.530039 1.30943 -0.521624 
6030 2 9.95192 2.56107 40.2972 -0.907487 0.649889 0.0223653 
5435 2 10.9462 1.78659 38.2895 0.053993 0.790898 -0.848366 
6035 2 11.0563 2.06475 42.377 0.231662 0.0439941 0.114693 
5434 2 9.74941 4.0521 38.1612 0.155263 -0.391103 -0.110864 
6034 2 9.76037 4.18054 42.2858 0.399673 -1.3633 -0.587809 
5420 2 8.53655 1.63077 38.1156 -0.22635 1.06809 0.423757 
6736 2 4.65252 14.4093 44.3886 -0.0770317 0.436001 -0.548509 
6747 2 12.2242 10.2565 44.3468 -0.212822 -1.01311 0.635656 
5407 2 0.694137 5.95368 38.168 2.45059 1.79545 0.95201 
6007 2 0.871449 6.23065 41.9553 -0.391949 -0.283002 1.78765 
5529 2 2.24298 8.28435 38.0334 -1.68999 1.88956 0.350229 
6129 2 1.79527 8.47631 42.0156 0.584398 0.157221 1.35083 
6005 2 2.20557 7.07495 40.2506 0.0698634 -0.458969 -2.10195 
5412 2 3.26439 6.3274 38.0813 1.5435 -2.2638 0.994932 
6012 2 3.53335 6.43357 42.0843 -0.261179 -0.742453 0.470778 
6133 1 4.70956 8.4731 39.9593 0.541371 -0.364543 -0.156759 
6016 2 4.73313 5.31122 40.0996 -0.69472 1.08306 -1.68148 
5419 2 6.11308 6.2431 38.0424 -0.984493 0.490506 1.0609 
6019 2 5.96138 6.28654 41.7318 0.00164753 -1.21036 1.94958 
5541 2 7.36466 8.5501 38.0444 -0.144106 -0.564419 1.17764 
6141 2 6.98368 8.2551 42.1637 1.05187 2.60904 -0.270549 
6017 2 7.52991 7.08241 40.1833 -0.696167 -0.288908 -1.71458 
6145 1 9.73346 8.40752 40.1898 1.20001 0.117823 -0.157218 
6028 2 10.166 5.60448 40.2909 -1.18973 -0.621951 -0.0354663 
5431 2 10.8881 6.21788 38.1841 0.997506 0.241207 -0.479465 
6031 2 11.1099 6.32697 42.3748 0.343496 -0.303441 0.260684 
5424 2 8.39113 6.1341 38.0194 1.29325 -0.074438 0.410181 
6024 2 8.63949 6.22414 42.1395 -0.851893 0.406252 0.679752 
4810 2 -0.363837 4.09759 34.2095 -0.290243 -0.695267 0.206406 
6735 2 7.14147 10.1134 44.2095 -0.411126 -1.7528 -0.372886 
5531 2 0.347939 10.3115 38.1417 1.56164 -0.674428 -1.22932 
6131 2 0.820085 10.6606 42.1178 0.194128 -0.0877202 -0.386095 
6123 2 2.17534 9.89629 40.1512 -0.0667209 0.337154 -0.937386 