ITEM: TIMESTEP                                    
0                                                 
ITEM: NUMBER OF ATOMS                             
         256
ITEM: BOX BOUNDS pp pp pp                         
   0.0000000000000000        16.197599410999999     
   0.0000000000000000        16.197599410999999     
   0.0000000000000000        16.197599410999999     
ITEM: ATOMS id type x y z c_strOrder c_bondOrder
        1   1     0.00000000     0.00000000     0.00000000   18.00    0.27
        2   1     0.00000000     2.02469993     2.02469993   18.00    0.27
        3   1     2.02469993     0.00000000     2.02469993   18.00    0.27
        4   1     2.02469993     2.02469993     0.00000000   18.00    0.27
        5   1     0.00000000     0.00000000     4.04939985   18.00    0.27
        6   1     0.00000000     0.00000000    12.14819956   18.00    0.27
        7   1     4.04939985     0.00000000     0.00000000   18.00    0.27
        8   1    12.14819956     0.00000000     0.00000000   18.00    0.27
        9   1     0.00000000     4.04939985     0.00000000   18.00    0.27
       10   1     0.00000000    12.14819956     0.00000000   18.00    0.27
       11   1     0.00000000     2.02469993     6.07409978   18.00    0.27
       12   1     0.00000000     2.02469993    14.17289948   18.00    0.27
       13   1     4.04939985     2.02469993     2.02469993   18.00    0.27
       14   1    12.14819956     2.02469993     2.02469993   18.00    0.27
       15   1     0.00000000     6.07409978     2.02469993   18.00    0.27
       16   1     0.00000000    14.17289948     2.02469993   18.00    0.27
       17   1     2.02469993     0.00000000     6.07409978   18.00    0.27
       18   1     2.02469993     0.00000000    14.17289948   18.00    0.27
       19   1     6.07409978     0.00000000     2.02469993   18.00    0.27
       20   1    14.17289948     0.00000000     2.02469993   18.00    0.27
       21   1     2.02469993     4.04939985     2.02469993   18.00    0.27
       22   1     2.02469993    12.14819956     2.02469993   18.00    0.27
       23   1     2.02469993     2.02469993     4.04939985   18.00    0.27
       24   1     2.02469993     2.02469993    12.14819956   18.00    0.27
       25   1     6.07409978     2.02469993     0.00000000   18.00    0.27
       26   1    14.17289948     2.02469993     0.00000000   18.00    0.27
       27   1     2.02469993     6.07409978     0.00000000   18.00    0.27
       28   1     2.02469993    14.17289948     0.00000000   18.00    0.27
       29   1     0.00000000     0.00000000     8.09879971   18.00    0.27
       30   1     8.09879971     0.00000000     0.00000000   18.00    0.27
       31   1     0.00000000     8.09879971     0.00000000   18.00    0.27
       32   1     0.00000000     2.02469993    10.12349963   18.00    0.27
       33   1     8.09879971     2.02469993     2.02469993   18.00    0.27
       34   1     0.00000000    10.12349963     2.02469993   18.00    0.27
       35   1     2.02469993     0.00000000    10.12349963   18.00    0.27
       36   1    10.12349963     0.00000000     2.02469993   18.00    0.27
       37   1     2.02469993     8.09879971     2.02469993   18.00    0.27
       38   1     2.02469993     2.02469993     8.09879971   18.00    0.27
       39   1    10.12349963     2.02469993     0.00000000   18.00    0.27
       40   1     2.02469993    10.12349963     0.00000000   18.00    0.27
       41   1     0.00000000     4.04939985     4.04939985   18.00    0.27
       42   1     0.00000000    12.14819956    12.14819956   18.00    0.27
       43   1     0.00000000    12.14819956     4.04939985   18.00    0.27
       44   1     0.00000000     4.04939985    12.14819956   18.00    0.27
       45   1     4.04939985     0.00000000     4.04939985   18.00    0.27
       46   1    12.14819956     0.00000000    12.14819956   18.00    0.27
       47   1     4.04939985     0.00000000    12.14819956   18.00    0.27
       48   1    12.14819956     0.00000000     4.04939985   18.00    0.27
       49   1     4.04939985     4.04939985     0.00000000   18.00    0.27
       50   1    12.14819956    12.14819956     0.00000000   18.00    0.27
       51   1    12.14819956     4.04939985     0.00000000   18.00    0.27
       52   1     4.04939985    12.14819956     0.00000000   18.00    0.27
       53   1     0.00000000     6.07409978     6.07409978   18.00    0.27
       54   1     0.00000000    14.17289948    14.17289948   18.00    0.27
       55   1     0.00000000    14.17289948     6.07409978   18.00    0.27
       56   1     0.00000000     6.07409978    14.17289948   18.00    0.27
       57   1     4.04939985     2.02469993     6.07409978   18.00    0.27
       58   1    12.14819956     2.02469993    14.17289948   18.00    0.27
       59   1     4.04939985     2.02469993    14.17289948   18.00    0.27
       60   1    12.14819956     2.02469993     6.07409978   18.00    0.27
       61   1     4.04939985     6.07409978     2.02469993   18.00    0.27
       62   1    12.14819956    14.17289948     2.02469993   18.00    0.27
       63   1    12.14819956     6.07409978     2.02469993   18.00    0.27
       64   1     4.04939985    14.17289948     2.02469993   18.00    0.27
       65   1     2.02469993     4.04939985     6.07409978   18.00    0.27
       66   1     2.02469993    12.14819956    14.17289948   18.00    0.27
       67   1     2.02469993    12.14819956     6.07409978   18.00    0.27
       68   1     2.02469993     4.04939985    14.17289948   18.00    0.27
       69   1     6.07409978     0.00000000     6.07409978   18.00    0.27
       70   1    14.17289948     0.00000000    14.17289948   18.00    0.27
       71   1     6.07409978     0.00000000    14.17289948   18.00    0.27
       72   1    14.17289948     0.00000000     6.07409978   18.00    0.27
       73   1     6.07409978     4.04939985     2.02469993   18.00    0.27
       74   1    14.17289948    12.14819956     2.02469993   18.00    0.27
       75   1    14.17289948     4.04939985     2.02469993   18.00    0.27
       76   1     6.07409978    12.14819956     2.02469993   18.00    0.27
       77   1     2.02469993     6.07409978     4.04939985   18.00    0.27
       78   1     2.02469993    14.17289948    12.14819956   18.00    0.27
       79   1     2.02469993    14.17289948     4.04939985   18.00    0.27
       80   1     2.02469993     6.07409978    12.14819956   18.00    0.27
       81   1     6.07409978     2.02469993     4.04939985   18.00    0.27
       82   1    14.17289948     2.02469993    12.14819956   18.00    0.27
       83   1     6.07409978     2.02469993    12.14819956   18.00    0.27
       84   1    14.17289948     2.02469993     4.04939985   18.00    0.27
       85   1     6.07409978     6.07409978     0.00000000   18.00    0.27
       86   1    14.17289948    14.17289948     0.00000000   18.00    0.27
       87   1    14.17289948     6.07409978     0.00000000   18.00    0.27
       88   1     6.07409978    14.17289948     0.00000000   18.00    0.27
       89   1     0.00000000     4.04939985     8.09879971   18.00    0.27
       90   1     0.00000000    12.14819956     8.09879971   18.00    0.27
       91   1     8.09879971     0.00000000     4.04939985   18.00    0.27
       92   1     8.09879971     0.00000000    12.14819956   18.00    0.27
       93   1     4.04939985     8.09879971     0.00000000   18.00    0.27
       94   1    12.14819956     8.09879971     0.00000000   18.00    0.27
       95   1     4.04939985     0.00000000     8.09879971   18.00    0.27
       96   1    12.14819956     0.00000000     8.09879971   18.00    0.27
       97   1     0.00000000     8.09879971    12.14819956   18.00    0.27
       98   1     0.00000000     8.09879971     4.04939985   18.00    0.27
       99   1     8.09879971     4.04939985     0.00000000   18.00    0.27
      100   1     8.09879971    12.14819956     0.00000000   18.00    0.27
      101   1     0.00000000     6.07409978    10.12349963   18.00    0.27
      102   1     0.00000000    14.17289948    10.12349963   18.00    0.27
      103   1     8.09879971     2.02469993     6.07409978   18.00    0.27
      104   1     8.09879971     2.02469993    14.17289948   18.00    0.27
      105   1     4.04939985    10.12349963     2.02469993   18.00    0.27
      106   1    12.14819956    10.12349963     2.02469993   18.00    0.27
      107   1     4.04939985     2.02469993    10.12349963   18.00    0.27
      108   1    12.14819956     2.02469993    10.12349963   18.00    0.27
      109   1     0.00000000    10.12349963    14.17289948   18.00    0.27
      110   1     0.00000000    10.12349963     6.07409978   18.00    0.27
      111   1     8.09879971     6.07409978     2.02469993   18.00    0.27
      112   1     8.09879971    14.17289948     2.02469993   18.00    0.27
      113   1     2.02469993     4.04939985    10.12349963   18.00    0.27
      114   1     2.02469993    12.14819956    10.12349963   18.00    0.27
      115   1    10.12349963     0.00000000     6.07409978   18.00    0.27
      116   1    10.12349963     0.00000000    14.17289948   18.00    0.27
      117   1     6.07409978     8.09879971     2.02469993   18.00    0.27
      118   1    14.17289948     8.09879971     2.02469993   18.00    0.27
      119   1     6.07409978     0.00000000    10.12349963   18.00    0.27
      120   1    14.17289948     0.00000000    10.12349963   18.00    0.27
      121   1     2.02469993     8.09879971    14.17289948   18.00    0.27
      122   1     2.02469993     8.09879971     6.07409978   18.00    0.27
      123   1    10.12349963     4.04939985     2.02469993   18.00    0.27
      124   1    10.12349963    12.14819956     2.02469993   18.00    0.27
      125   1     2.02469993     6.07409978     8.09879971   18.00    0.27
      126   1     2.02469993    14.17289948     8.09879971   18.00    0.27
      127   1    10.12349963     2.02469993     4.04939985   18.00    0.27
      128   1    10.12349963     2.02469993    12.14819956   18.00    0.27
      129   1     6.07409978    10.12349963     0.00000000   18.00    0.27
      130   1    14.17289948    10.12349963     0.00000000   18.00    0.27
      131   1     6.07409978     2.02469993     8.09879971   18.00    0.27
      132   1    14.17289948     2.02469993     8.09879971   18.00    0.27
      133   1     2.02469993    10.12349963    12.14819956   18.00    0.27
      134   1     2.02469993    10.12349963     4.04939985   18.00    0.27
      135   1    10.12349963     6.07409978     0.00000000   18.00    0.27
      136   1    10.12349963    14.17289948     0.00000000   18.00    0.27
      137   1     0.00000000     8.09879971     8.09879971   18.00    0.27
      138   1     8.09879971     0.00000000     8.09879971   18.00    0.27
      139   1     8.09879971     8.09879971     0.00000000   18.00    0.27
      140   1     0.00000000    10.12349963    10.12349963   18.00    0.27
      141   1     8.09879971     2.02469993    10.12349963   18.00    0.27
      142   1     8.09879971    10.12349963     2.02469993   18.00    0.27
      143   1     2.02469993     8.09879971    10.12349963   18.00    0.27
      144   1    10.12349963     0.00000000    10.12349963   18.00    0.27
      145   1    10.12349963     8.09879971     2.02469993   18.00    0.27
      146   1     2.02469993    10.12349963     8.09879971   18.00    0.27
      147   1    10.12349963     2.02469993     8.09879971   18.00    0.27
      148   1    10.12349963    10.12349963     0.00000000   18.00    0.27
      149   1     4.04939985     4.04939985     4.04939985   18.00    0.27
      150   1    12.14819956    12.14819956    12.14819956   18.00    0.27
      151   1    12.14819956    12.14819956     4.04939985   18.00    0.27
      152   1     4.04939985     4.04939985    12.14819956   18.00    0.27
      153   1    12.14819956     4.04939985    12.14819956   18.00    0.27
      154   1     4.04939985    12.14819956     4.04939985   18.00    0.27
      155   1     4.04939985    12.14819956    12.14819956   18.00    0.27
      156   1    12.14819956     4.04939985     4.04939985   18.00    0.27
      157   1     4.04939985     6.07409978     6.07409978   18.00    0.27
      158   1    12.14819956    14.17289948    14.17289948   18.00    0.27
      159   1    12.14819956    14.17289948     6.07409978   18.00    0.27
      160   1     4.04939985     6.07409978    14.17289948   18.00    0.27
      161   1    12.14819956     6.07409978    14.17289948   18.00    0.27
      162   1     4.04939985    14.17289948     6.07409978   18.00    0.27
      163   1     4.04939985    14.17289948    14.17289948   18.00    0.27
      164   1    12.14819956     6.07409978     6.07409978   18.00    0.27
      165   1     6.07409978     4.04939985     6.07409978   18.00    0.27
      166   1    14.17289948    12.14819956    14.17289948   18.00    0.27
      167   1    14.17289948    12.14819956     6.07409978   18.00    0.27
      168   1     6.07409978     4.04939985    14.17289948   18.00    0.27
      169   1    14.17289948     4.04939985    14.17289948   18.00    0.27
      170   1     6.07409978    12.14819956     6.07409978   18.00    0.27
      171   1     6.07409978    12.14819956    14.17289948   18.00    0.27
      172   1    14.17289948     4.04939985     6.07409978   18.00    0.27
      173   1     6.07409978     6.07409978     4.04939985   18.00    0.27
      174   1    14.17289948    14.17289948    12.14819956   18.00    0.27
      175   1    14.17289948    14.17289948     4.04939985   18.00    0.27
      176   1     6.07409978     6.07409978    12.14819956   18.00    0.27
      177   1    14.17289948     6.07409978    12.14819956   18.00    0.27
      178   1     6.07409978    14.17289948     4.04939985   18.00    0.27
      179   1     6.07409978    14.17289948    12.14819956   18.00    0.27
      180   1    14.17289948     6.07409978     4.04939985   18.00    0.27
      181   1     4.04939985     4.04939985     8.09879971   18.00    0.27
      182   1    12.14819956    12.14819956     8.09879971   18.00    0.27
      183   1    12.14819956     4.04939985     8.09879971   18.00    0.27
      184   1     4.04939985    12.14819956     8.09879971   18.00    0.27
      185   1     8.09879971     4.04939985     4.04939985   18.00    0.27
      186   1     8.09879971    12.14819956    12.14819956   18.00    0.27
      187   1     8.09879971    12.14819956     4.04939985   18.00    0.27
      188   1     8.09879971     4.04939985    12.14819956   18.00    0.27
      189   1     4.04939985     8.09879971     4.04939985   18.00    0.27
      190   1    12.14819956     8.09879971    12.14819956   18.00    0.27
      191   1     4.04939985     8.09879971    12.14819956   18.00    0.27
      192   1    12.14819956     8.09879971     4.04939985   18.00    0.27
      193   1     4.04939985     6.07409978    10.12349963   18.00    0.27
      194   1    12.14819956    14.17289948    10.12349963   18.00    0.27
      195   1    12.14819956     6.07409978    10.12349963   18.00    0.27
      196   1     4.04939985    14.17289948    10.12349963   18.00    0.27
      197   1     8.09879971     6.07409978     6.07409978   18.00    0.27
      198   1     8.09879971    14.17289948    14.17289948   18.00    0.27
      199   1     8.09879971    14.17289948     6.07409978   18.00    0.27
      200   1     8.09879971     6.07409978    14.17289948   18.00    0.27
      201   1     4.04939985    10.12349963     6.07409978   18.00    0.27
      202   1    12.14819956    10.12349963    14.17289948   18.00    0.27
      203   1     4.04939985    10.12349963    14.17289948   18.00    0.27
      204   1    12.14819956    10.12349963     6.07409978   18.00    0.27
      205   1     6.07409978     4.04939985    10.12349963   18.00    0.27
      206   1    14.17289948    12.14819956    10.12349963   18.00    0.27
      207   1    14.17289948     4.04939985    10.12349963   18.00    0.27
      208   1     6.07409978    12.14819956    10.12349963   18.00    0.27
      209   1    10.12349963     4.04939985     6.07409978   18.00    0.27
      210   1    10.12349963    12.14819956    14.17289948   18.00    0.27
      211   1    10.12349963    12.14819956     6.07409978   18.00    0.27
      212   1    10.12349963     4.04939985    14.17289948   18.00    0.27
      213   1     6.07409978     8.09879971     6.07409978   18.00    0.27
      214   1    14.17289948     8.09879971    14.17289948   18.00    0.27
      215   1     6.07409978     8.09879971    14.17289948   18.00    0.27
      216   1    14.17289948     8.09879971     6.07409978   18.00    0.27
      217   1     6.07409978     6.07409978     8.09879971   18.00    0.27
      218   1    14.17289948    14.17289948     8.09879971   18.00    0.27
      219   1    14.17289948     6.07409978     8.09879971   18.00    0.27
      220   1     6.07409978    14.17289948     8.09879971   18.00    0.27
      221   1    10.12349963     6.07409978     4.04939985   18.00    0.27
      222   1    10.12349963    14.17289948    12.14819956   18.00    0.27
      223   1    10.12349963    14.17289948     4.04939985   18.00    0.27
      224   1    10.12349963     6.07409978    12.14819956   18.00    0.27
      225   1     6.07409978    10.12349963     4.04939985   18.00    0.27
      226   1    14.17289948    10.12349963    12.14819956   18.00    0.27
      227   1     6.07409978    10.12349963    12.14819956   18.00    0.27
      228   1    14.17289948    10.12349963     4.04939985   18.00    0.27
      229   1     4.04939985     8.09879971     8.09879971   18.00    0.27
      230   1    12.14819956     8.09879971     8.09879971   18.00    0.27
      231   1     8.09879971     4.04939985     8.09879971   18.00    0.27
      232   1     8.09879971    12.14819956     8.09879971   18.00    0.27
      233   1     8.09879971     8.09879971     4.04939985   18.00    0.27
      234   1     8.09879971     8.09879971    12.14819956   18.00    0.27
      235   1     4.04939985    10.12349963    10.12349963   18.00    0.27
      236   1    12.14819956    10.12349963    10.12349963   18.00    0.27
      237   1     8.09879971     6.07409978    10.12349963   18.00    0.27
      238   1     8.09879971    14.17289948    10.12349963   18.00    0.27
      239   1     8.09879971    10.12349963     6.07409978   18.00    0.27
      240   1     8.09879971    10.12349963    14.17289948   18.00    0.27
      241   1     6.07409978     8.09879971    10.12349963   18.00    0.27
      242   1    14.17289948     8.09879971    10.12349963   18.00    0.27
      243   1    10.12349963     4.04939985    10.12349963   18.00    0.27
      244   1    10.12349963    12.14819956    10.12349963   18.00    0.27
      245   1    10.12349963     8.09879971     6.07409978   18.00    0.27
      246   1    10.12349963     8.09879971    14.17289948   18.00    0.27
      247   1     6.07409978    10.12349963     8.09879971   18.00    0.27
      248   1    14.17289948    10.12349963     8.09879971   18.00    0.27
      249   1    10.12349963     6.07409978     8.09879971   18.00    0.27
      250   1    10.12349963    14.17289948     8.09879971   18.00    0.27
      251   1    10.12349963    10.12349963     4.04939985   18.00    0.27
      252   1    10.12349963    10.12349963    12.14819956   18.00    0.27
      253   1     8.09879971     8.09879971     8.09879971   18.00    0.27
      254   1     8.09879971    10.12349963    10.12349963   18.00    0.27
      255   1    10.12349963     8.09879971    10.12349963   18.00    0.27
      256   1    10.12349963    10.12349963     8.09879971   18.00    0.27
ITEM: TIMESTEP                                    
0                                                 
ITEM: NUMBER OF ATOMS                             
         256
ITEM: BOX BOUNDS pp pp pp                         
   0.0000000000000000        16.197599410999999     
   0.0000000000000000        16.197599410999999     
   0.0000000000000000        16.197599410999999     
ITEM: ATOMS id type x y z c_strOrder c_bondOrder
        1   1     0.00000000     0.00000000     0.00000000   18.00    0.27
        2   1     0.00000000     2.02469993     2.02469993   18.00    0.27
        3   1     2.02469993     0.00000000     2.02469993   18.00    0.27
        4   1     2.02469993     2.02469993     0.00000000   18.00    0.27
        5   1     0.00000000     0.00000000     4.04939985   18.00    0.27
        6   1     0.00000000     0.00000000    12.14819956   18.00    0.27
        7   1     4.04939985     0.00000000     0.00000000   18.00    0.27
        8   1    12.14819956     0.00000000     0.00000000   18.00    0.27
        9   1     0.00000000     4.04939985     0.00000000   18.00    0.27
       10   1     0.00000000    12.14819956     0.00000000   18.00    0.27
       11   1     0.00000000     2.02469993     6.07409978   18.00    0.27
       12   1     0.00000000     2.02469993    14.17289948   18.00    0.27
       13   1     4.04939985     2.02469993     2.02469993   18.00    0.27
       14   1    12.14819956     2.02469993     2.02469993   18.00    0.27
       15   1     0.00000000     6.07409978     2.02469993   18.00    0.27
       16   1     0.00000000    14.17289948     2.02469993   18.00    0.27
       17   1     2.02469993     0.00000000     6.07409978   18.00    0.27
       18   1     2.02469993     0.00000000    14.17289948   18.00    0.27
       19   1     6.07409978     0.00000000     2.02469993   18.00    0.27
       20   1    14.17289948     0.00000000     2.02469993   18.00    0.27
       21   1     2.02469993     4.04939985     2.02469993   18.00    0.27
       22   1     2.02469993    12.14819956     2.02469993   18.00    0.27
       23   1     2.02469993     2.02469993     4.04939985   18.00    0.27
       24   1     2.02469993     2.02469993    12.14819956   18.00    0.27
       25   1     6.07409978     2.02469993     0.00000000   18.00    0.27
       26   1    14.17289948     2.02469993     0.00000000   18.00    0.27
       27   1     2.02469993     6.07409978     0.00000000   18.00    0.27
       28   1     2.02469993    14.17289948     0.00000000   18.00    0.27
       29   1     0.00000000     0.00000000     8.09879971   18.00    0.27
       30   1     8.09879971     0.00000000     0.00000000   18.00    0.27
       31   1     0.00000000     8.09879971     0.00000000   18.00    0.27
       32   1     0.00000000     2.02469993    10.12349963   18.00    0.27
       33   1     8.09879971     2.02469993     2.02469993   18.00    0.27
       34   1     0.00000000    10.12349963     2.02469993   18.00    0.27
       35   1     2.02469993     0.00000000    10.12349963   18.00    0.27
       36   1    10.12349963     0.00000000     2.02469993   18.00    0.27
       37   1     2.02469993     8.09879971     2.02469993   18.00    0.27
       38   1     2.02469993     2.02469993     8.09879971   18.00    0.27
       39   1    10.12349963     2.02469993     0.00000000   18.00    0.27
       40   1     2.02469993    10.12349963     0.00000000   18.00    0.27
       41   1     0.00000000     4.04939985     4.04939985   18.00    0.27
       42   1     0.00000000    12.14819956    12.14819956   18.00    0.27
       43   1     0.00000000    12.14819956     4.04939985   18.00    0.27
       44   1     0.00000000     4.04939985    12.14819956   18.00    0.27
       45   1     4.04939985     0.00000000     4.04939985   18.00    0.27
       46   1    12.14819956     0.00000000    12.14819956   18.00    0.27
       47   1     4.04939985     0.00000000    12.14819956   18.00    0.27
       48   1    12.14819956     0.00000000     4.04939985   18.00    0.27
       49   1     4.04939985     4.04939985     0.00000000   18.00    0.27
       50   1    12.14819956    12.14819956     0.00000000   18.00    0.27
       51   1    12.14819956     4.04939985     0.00000000   18.00    0.27
       52   1     4.04939985    12.14819956     0.00000000   18.00    0.27
       53   1     0.00000000     6.07409978     6.07409978   18.00    0.27
       54   1     0.00000000    14.17289948    14.17289948   18.00    0.27
       55   1     0.00000000    14.17289948     6.07409978   18.00    0.27
       56   1     0.00000000     6.07409978    14.17289948   18.00    0.27
       57   1     4.04939985     2.02469993     6.07409978   18.00    0.27
       58   1    12.14819956     2.02469993    14.17289948   18.00    0.27
       59   1     4.04939985     2.02469993    14.17289948   18.00    0.27
       60   1    12.14819956     2.02469993     6.07409978   18.00    0.27
       61   1     4.04939985     6.07409978     2.02469993   18.00    0.27
       62   1    12.14819956    14.17289948     2.02469993   18.00    0.27
       63   1    12.14819956     6.07409978     2.02469993   18.00    0.27
       64   1     4.04939985    14.17289948     2.02469993   18.00    0.27
       65   1     2.02469993     4.04939985     6.07409978   18.00    0.27
       66   1     2.02469993    12.14819956    14.17289948   18.00    0.27
       67   1     2.02469993    12.14819956     6.07409978   18.00    0.27
       68   1     2.02469993     4.04939985    14.17289948   18.00    0.27
       69   1     6.07409978     0.00000000     6.07409978   18.00    0.27
       70   1    14.17289948     0.00000000    14.17289948   18.00    0.27
       71   1     6.07409978     0.00000000    14.17289948   18.00    0.27
       72   1    14.17289948     0.00000000     6.07409978   18.00    0.27
       73   1     6.07409978     4.04939985     2.02469993   18.00    0.27
       74   1    14.17289948    12.14819956     2.02469993   18.00    0.27
       75   1    14.17289948     4.04939985     2.02469993   18.00    0.27
       76   1     6.07409978    12.14819956     2.02469993   18.00    0.27
       77   1     2.02469993     6.07409978     4.04939985   18.00    0.27
       78   1     2.02469993    14.17289948    12.14819956   18.00    0.27
       79   1     2.02469993    14.17289948     4.04939985   18.00    0.27
       80   1     2.02469993     6.07409978    12.14819956   18.00    0.27
       81   1     6.07409978     2.02469993     4.04939985   18.00    0.27
       82   1    14.17289948     2.02469993    12.14819956   18.00    0.27
       83   1     6.07409978     2.02469993    12.14819956   18.00    0.27
       84   1    14.17289948     2.02469993     4.04939985   18.00    0.27
       85   1     6.07409978     6.07409978     0.00000000   18.00    0.27
       86   1    14.17289948    14.17289948     0.00000000   18.00    0.27
       87   1    14.17289948     6.07409978     0.00000000   18.00    0.27
       88   1     6.07409978    14.17289948     0.00000000   18.00    0.27
       89   1     0.00000000     4.04939985     8.09879971   18.00    0.27
       90   1     0.00000000    12.14819956     8.09879971   18.00    0.27
       91   1     8.09879971     0.00000000     4.04939985   18.00    0.27
       92   1     8.09879971     0.00000000    12.14819956   18.00    0.27
       93   1     4.04939985     8.09879971     0.00000000   18.00    0.27
       94   1    12.14819956     8.09879971     0.00000000   18.00    0.27
       95   1     4.04939985     0.00000000     8.09879971   18.00    0.27
       96   1    12.14819956     0.00000000     8.09879971   18.00    0.27
       97   1     0.00000000     8.09879971    12.14819956   18.00    0.27
       98   1     0.00000000     8.09879971     4.04939985   18.00    0.27
       99   1     8.09879971     4.04939985     0.00000000   18.00    0.27
      100   1     8.09879971    12.14819956     0.00000000   18.00    0.27
      101   1     0.00000000     6.07409978    10.12349963   18.00    0.27
      102   1     0.00000000    14.17289948    10.12349963   18.00    0.27
      103   1     8.09879971     2.02469993     6.07409978   18.00    0.27
      104   1     8.09879971     2.02469993    14.17289948   18.00    0.27
      105   1     4.04939985    10.12349963     2.02469993   18.00    0.27
      106   1    12.14819956    10.12349963     2.02469993   18.00    0.27
      107   1     4.04939985     2.02469993    10.12349963   18.00    0.27
      108   1    12.14819956     2.02469993    10.12349963   18.00    0.27
      109   1     0.00000000    10.12349963    14.17289948   18.00    0.27
      110   1     0.00000000    10.12349963     6.07409978   18.00    0.27
      111   1     8.09879971     6.07409978     2.02469993   18.00    0.27
      112   1     8.09879971    14.17289948     2.02469993   18.00    0.27
      113   1     2.02469993     4.04939985    10.12349963   18.00    0.27
      114   1     2.02469993    12.14819956    10.12349963   18.00    0.27
      115   1    10.12349963     0.00000000     6.07409978   18.00    0.27
      116   1    10.12349963     0.00000000    14.17289948   18.00    0.27
      117   1     6.07409978     8.09879971     2.02469993   18.00    0.27
      118   1    14.17289948     8.09879971     2.02469993   18.00    0.27
      119   1     6.07409978     0.00000000    10.12349963   18.00    0.27
      120   1    14.17289948     0.00000000    10.12349963   18.00    0.27
      121   1     2.02469993     8.09879971    14.17289948   18.00    0.27
      122   1     2.02469993     8.09879971     6.07409978   18.00    0.27
      123   1    10.12349963     4.04939985     2.02469993   18.00    0.27
      124   1    10.12349963    12.14819956     2.02469993   18.00    0.27
      125   1     2.02469993     6.07409978     8.09879971   18.00    0.27
      126   1     2.02469993    14.17289948     8.09879971   18.00    0.27
      127   1    10.12349963     2.02469993     4.04939985   18.00    0.27
      128   1    10.12349963     2.02469993    12.14819956   18.00    0.27
      129   1     6.07409978    10.12349963     0.00000000   18.00    0.27
      130   1    14.17289948    10.12349963     0.00000000   18.00    0.27
      131   1     6.07409978     2.02469993     8.09879971   18.00    0.27
      132   1    14.17289948     2.02469993     8.09879971   18.00    0.27