ITEM: TIMESTEP
0
ITEM: NUMBER OF ATOMS
256
ITEM: BOX BOUNDS pp pp pp
0.0 16.197599411
0.0 16.197599411
0.0 16.197599411
ITEM: ATOMS id type x y z
1 1 0.0 0.0 0.0
2 1 0.0 2.0246999264 2.0246999264
3 1 2.0246999264 0.0 2.0246999264
4 1 2.0246999264 2.0246999264 0.0
5 1 0.0 0.0 4.0493998527
6 1 0.0 0.0 12.1481995582
7 1 4.0493998527 0.0 0.0
8 1 12.1481995582 0.0 0.0
9 1 0.0 4.0493998527 0.0
10 1 0.0 12.1481995582 0.0
11 1 0.0 2.0246999264 6.0740997791
12 1 0.0 2.0246999264 14.1728994846
13 1 4.0493998527 2.0246999264 2.0246999264
14 1 12.1481995582 2.0246999264 2.0246999264
15 1 0.0 6.0740997791 2.0246999264
16 1 0.0 14.1728994846 2.0246999264
17 1 2.0246999264 0.0 6.0740997791
18 1 2.0246999264 0.0 14.1728994846
19 1 6.0740997791 0.0 2.0246999264
20 1 14.1728994846 0.0 2.0246999264
21 1 2.0246999264 4.0493998527 2.0246999264
22 1 2.0246999264 12.1481995582 2.0246999264
23 1 2.0246999264 2.0246999264 4.0493998527
24 1 2.0246999264 2.0246999264 12.1481995582
25 1 6.0740997791 2.0246999264 0.0
26 1 14.1728994846 2.0246999264 0.0
27 1 2.0246999264 6.0740997791 0.0
28 1 2.0246999264 14.1728994846 0.0
29 1 0.0 0.0 8.0987997055
30 1 8.0987997055 0.0 0.0
31 1 0.0 8.0987997055 0.0
32 1 0.0 2.0246999264 10.1234996319
33 1 8.0987997055 2.0246999264 2.0246999264
34 1 0.0 10.1234996319 2.0246999264
35 1 2.0246999264 0.0 10.1234996319
36 1 10.1234996319 0.0 2.0246999264
37 1 2.0246999264 8.0987997055 2.0246999264
38 1 2.0246999264 2.0246999264 8.0987997055
39 1 10.1234996319 2.0246999264 0.0
40 1 2.0246999264 10.1234996319 0.0
41 1 0.0 4.0493998527 4.0493998527
42 1 0.0 12.1481995582 12.1481995582
43 1 0.0 12.1481995582 4.0493998527
44 1 0.0 4.0493998527 12.1481995582
45 1 4.0493998527 0.0 4.0493998527
46 1 12.1481995582 0.0 12.1481995582
47 1 4.0493998527 0.0 12.1481995582
48 1 12.1481995582 0.0 4.0493998527
49 1 4.0493998527 4.0493998527 0.0
50 1 12.1481995582 12.1481995582 0.0
51 1 12.1481995582 4.0493998527 0.0
52 1 4.0493998527 12.1481995582 0.0
53 1 0.0 6.0740997791 6.0740997791
54 1 0.0 14.1728994846 14.1728994846
55 1 0.0 14.1728994846 6.0740997791
56 1 0.0 6.0740997791 14.1728994846
57 1 4.0493998527 2.0246999264 6.0740997791
58 1 12.1481995582 2.0246999264 14.1728994846
59 1 4.0493998527 2.0246999264 14.1728994846
60 1 12.1481995582 2.0246999264 6.0740997791
61 1 4.0493998527 6.0740997791 2.0246999264
62 1 12.1481995582 14.1728994846 2.0246999264
63 1 12.1481995582 6.0740997791 2.0246999264
64 1 4.0493998527 14.1728994846 2.0246999264
65 1 2.0246999264 4.0493998527 6.0740997791
66 1 2.0246999264 12.1481995582 14.1728994846
67 1 2.0246999264 12.1481995582 6.0740997791
68 1 2.0246999264 4.0493998527 14.1728994846
69 1 6.0740997791 0.0 6.0740997791
70 1 14.1728994846 0.0 14.1728994846
71 1 6.0740997791 0.0 14.1728994846
72 1 14.1728994846 0.0 6.0740997791
73 1 6.0740997791 4.0493998527 2.0246999264
74 1 14.1728994846 12.1481995582 2.0246999264
75 1 14.1728994846 4.0493998527 2.0246999264
76 1 6.0740997791 12.1481995582 2.0246999264
77 1 2.0246999264 6.0740997791 4.0493998527
78 1 2.0246999264 14.1728994846 12.1481995582
79 1 2.0246999264 14.1728994846 4.0493998527
80 1 2.0246999264 6.0740997791 12.1481995582
81 1 6.0740997791 2.0246999264 4.0493998527
82 1 14.1728994846 2.0246999264 12.1481995582
83 1 6.0740997791 2.0246999264 12.1481995582
84 1 14.1728994846 2.0246999264 4.0493998527
85 1 6.0740997791 6.0740997791 0.0
86 1 14.1728994846 14.1728994846 0.0
87 1 14.1728994846 6.0740997791 0.0
88 1 6.0740997791 14.1728994846 0.0
89 1 0.0 4.0493998527 8.0987997055
90 1 0.0 12.1481995582 8.0987997055
91 1 8.0987997055 0.0 4.0493998527
92 1 8.0987997055 0.0 12.1481995582
93 1 4.0493998527 8.0987997055 0.0
94 1 12.1481995582 8.0987997055 0.0
95 1 4.0493998527 0.0 8.0987997055
96 1 12.1481995582 0.0 8.0987997055
97 1 0.0 8.0987997055 12.1481995582
98 1 0.0 8.0987997055 4.0493998527
99 1 8.0987997055 4.0493998527 0.0
100 1 8.0987997055 12.1481995582 0.0
101 1 0.0 6.0740997791 10.1234996319
102 1 0.0 14.1728994846 10.1234996319
103 1 8.0987997055 2.0246999264 6.0740997791
104 1 8.0987997055 2.0246999264 14.1728994846
105 1 4.0493998527 10.1234996319 2.0246999264
106 1 12.1481995582 10.1234996319 2.0246999264
107 1 4.0493998527 2.0246999264 10.1234996319
108 1 12.1481995582 2.0246999264 10.1234996319
109 1 0.0 10.1234996319 14.1728994846
110 1 0.0 10.1234996319 6.0740997791
111 1 8.0987997055 6.0740997791 2.0246999264
112 1 8.0987997055 14.1728994846 2.0246999264
113 1 2.0246999264 4.0493998527 10.1234996319
114 1 2.0246999264 12.1481995582 10.1234996319
115 1 10.1234996319 0.0 6.0740997791
116 1 10.1234996319 0.0 14.1728994846
117 1 6.0740997791 8.0987997055 2.0246999264
118 1 14.1728994846 8.0987997055 2.0246999264
119 1 6.0740997791 0.0 10.1234996319
120 1 14.1728994846 0.0 10.1234996319
121 1 2.0246999264 8.0987997055 14.1728994846
122 1 2.0246999264 8.0987997055 6.0740997791
123 1 10.1234996319 4.0493998527 2.0246999264
124 1 10.1234996319 12.1481995582 2.0246999264
125 1 2.0246999264 6.0740997791 8.0987997055
126 1 2.0246999264 14.1728994846 8.0987997055
127 1 10.1234996319 2.0246999264 4.0493998527
128 1 10.1234996319 2.0246999264 12.1481995582
129 1 6.0740997791 10.1234996319 0.0
130 1 14.1728994846 10.1234996319 0.0
131 1 6.0740997791 2.0246999264 8.0987997055
132 1 14.1728994846 2.0246999264 8.0987997055
133 1 2.0246999264 10.1234996319 12.1481995582
134 1 2.0246999264 10.1234996319 4.0493998527
135 1 10.1234996319 6.0740997791 0.0
136 1 10.1234996319 14.1728994846 0.0
137 1 0.0 8.0987997055 8.0987997055
138 1 8.0987997055 0.0 8.0987997055
139 1 8.0987997055 8.0987997055 0.0
140 1 0.0 10.1234996319 10.1234996319
141 1 8.0987997055 2.0246999264 10.1234996319
142 1 8.0987997055 10.1234996319 2.0246999264
143 1 2.0246999264 8.0987997055 10.1234996319
144 1 10.1234996319 0.0 10.1234996319
145 1 10.1234996319 8.0987997055 2.0246999264
146 1 2.0246999264 10.1234996319 8.0987997055
147 1 10.1234996319 2.0246999264 8.0987997055
148 1 10.1234996319 10.1234996319 0.0
149 1 4.0493998527 4.0493998527 4.0493998527
150 1 12.1481995582 12.1481995582 12.1481995582
151 1 12.1481995582 12.1481995582 4.0493998527
152 1 4.0493998527 4.0493998527 12.1481995582
153 1 12.1481995582 4.0493998527 12.1481995582
154 1 4.0493998527 12.1481995582 4.0493998527
155 1 4.0493998527 12.1481995582 12.1481995582
156 1 12.1481995582 4.0493998527 4.0493998527
157 1 4.0493998527 6.0740997791 6.0740997791
158 1 12.1481995582 14.1728994846 14.1728994846
159 1 12.1481995582 14.1728994846 6.0740997791
160 1 4.0493998527 6.0740997791 14.1728994846
161 1 12.1481995582 6.0740997791 14.1728994846
162 1 4.0493998527 14.1728994846 6.0740997791
163 1 4.0493998527 14.1728994846 14.1728994846
164 1 12.1481995582 6.0740997791 6.0740997791
165 1 6.0740997791 4.0493998527 6.0740997791
166 1 14.1728994846 12.1481995582 14.1728994846
167 1 14.1728994846 12.1481995582 6.0740997791
168 1 6.0740997791 4.0493998527 14.1728994846
169 1 14.1728994846 4.0493998527 14.1728994846
170 1 6.0740997791 12.1481995582 6.0740997791
171 1 6.0740997791 12.1481995582 14.1728994846
172 1 14.1728994846 4.0493998527 6.0740997791
173 1 6.0740997791 6.0740997791 4.0493998527
174 1 14.1728994846 14.1728994846 12.1481995582
175 1 14.1728994846 14.1728994846 4.0493998527
176 1 6.0740997791 6.0740997791 12.1481995582
177 1 14.1728994846 6.0740997791 12.1481995582
178 1 6.0740997791 14.1728994846 4.0493998527
179 1 6.0740997791 14.1728994846 12.1481995582
180 1 14.1728994846 6.0740997791 4.0493998527
181 1 4.0493998527 4.0493998527 8.0987997055
182 1 12.1481995582 12.1481995582 8.0987997055
183 1 12.1481995582 4.0493998527 8.0987997055
184 1 4.0493998527 12.1481995582 8.0987997055
185 1 8.0987997055 4.0493998527 4.0493998527
186 1 8.0987997055 12.1481995582 12.1481995582
187 1 8.0987997055 12.1481995582 4.0493998527
188 1 8.0987997055 4.0493998527 12.1481995582
189 1 4.0493998527 8.0987997055 4.0493998527
190 1 12.1481995582 8.0987997055 12.1481995582
191 1 4.0493998527 8.0987997055 12.1481995582
192 1 12.1481995582 8.0987997055 4.0493998527
193 1 4.0493998527 6.0740997791 10.1234996319
194 1 12.1481995582 14.1728994846 10.1234996319
195 1 12.1481995582 6.0740997791 10.1234996319
196 1 4.0493998527 14.1728994846 10.1234996319
197 1 8.0987997055 6.0740997791 6.0740997791
198 1 8.0987997055 14.1728994846 14.1728994846
199 1 8.0987997055 14.1728994846 6.0740997791
200 1 8.0987997055 6.0740997791 14.1728994846
201 1 4.0493998527 10.1234996319 6.0740997791
202 1 12.1481995582 10.1234996319 14.1728994846
203 1 4.0493998527 10.1234996319 14.1728994846
204 1 12.1481995582 10.1234996319 6.0740997791
205 1 6.0740997791 4.0493998527 10.1234996319
206 1 14.1728994846 12.1481995582 10.1234996319
207 1 14.1728994846 4.0493998527 10.1234996319
208 1 6.0740997791 12.1481995582 10.1234996319
209 1 10.1234996319 4.0493998527 6.0740997791
210 1 10.1234996319 12.1481995582 14.1728994846
211 1 10.1234996319 12.1481995582 6.0740997791
212 1 10.1234996319 4.0493998527 14.1728994846
213 1 6.0740997791 8.0987997055 6.0740997791
214 1 14.1728994846 8.0987997055 14.1728994846
215 1 6.0740997791 8.0987997055 14.1728994846
216 1 14.1728994846 8.0987997055 6.0740997791
217 1 6.0740997791 6.0740997791 8.0987997055
218 1 14.1728994846 14.1728994846 8.0987997055
219 1 14.1728994846 6.0740997791 8.0987997055
220 1 6.0740997791 14.1728994846 8.0987997055
221 1 10.1234996319 6.0740997791 4.0493998527
222 1 10.1234996319 14.1728994846 12.1481995582
223 1 10.1234996319 14.1728994846 4.0493998527
224 1 10.1234996319 6.0740997791 12.1481995582
225 1 6.0740997791 10.1234996319 4.0493998527
226 1 14.1728994846 10.1234996319 12.1481995582
227 1 6.0740997791 10.1234996319 12.1481995582
228 1 14.1728994846 10.1234996319 4.0493998527
229 1 4.0493998527 8.0987997055 8.0987997055
230 1 12.1481995582 8.0987997055 8.0987997055
231 1 8.0987997055 4.0493998527 8.0987997055
232 1 8.0987997055 12.1481995582 8.0987997055
233 1 8.0987997055 8.0987997055 4.0493998527
234 1 8.0987997055 8.0987997055 12.1481995582
235 1 4.0493998527 10.1234996319 10.1234996319
236 1 12.1481995582 10.1234996319 10.1234996319
237 1 8.0987997055 6.0740997791 10.1234996319
238 1 8.0987997055 14.1728994846 10.1234996319
239 1 8.0987997055 10.1234996319 6.0740997791
240 1 8.0987997055 10.1234996319 14.1728994846
241 1 6.0740997791 8.0987997055 10.1234996319
242 1 14.1728994846 8.0987997055 10.1234996319
243 1 10.1234996319 4.0493998527 10.1234996319
244 1 10.1234996319 12.1481995582 10.1234996319
245 1 10.1234996319 8.0987997055 6.0740997791
246 1 10.1234996319 8.0987997055 14.1728994846
247 1 6.0740997791 10.1234996319 8.0987997055
248 1 14.1728994846 10.1234996319 8.0987997055
249 1 10.1234996319 6.0740997791 8.0987997055
250 1 10.1234996319 14.1728994846 8.0987997055
251 1 10.1234996319 10.1234996319 4.0493998527
252 1 10.1234996319 10.1234996319 12.1481995582
253 1 8.0987997055 8.0987997055 8.0987997055
254 1 8.0987997055 10.1234996319 10.1234996319
255 1 10.1234996319 8.0987997055 10.1234996319
256 1 10.1234996319 10.1234996319 8.0987997055
ITEM: TIMESTEP
0
ITEM: NUMBER OF ATOMS
256
ITEM: BOX BOUNDS pp pp pp
0.0 16.197599411
0.0 16.197599411
0.0 16.197599411
ITEM: ATOMS id type x y z
1 1 0.0 0.0 0.0
2 1 0.0 2.0246999264 2.0246999264
3 1 2.0246999264 0.0 2.0246999264
4 1 2.0246999264 2.0246999264 0.0
5 1 0.0 0.0 4.0493998527
6 1 0.0 0.0 12.1481995582
7 1 4.0493998527 0.0 0.0
8 1 12.1481995582 0.0 0.0
9 1 0.0 4.0493998527 0.0
10 1 0.0 12.1481995582 0.0
11 1 0.0 2.0246999264 6.0740997791
12 1 0.0 2.0246999264 14.1728994846
13 1 4.0493998527 2.0246999264 2.0246999264
14 1 12.1481995582 2.0246999264 2.0246999264
15 1 0.0 6.0740997791 2.0246999264
16 1 0.0 14.1728994846 2.0246999264
17 1 2.0246999264 0.0 6.0740997791
18 1 2.0246999264 0.0 14.1728994846
19 1 6.0740997791 0.0 2.0246999264
20 1 14.1728994846 0.0 2.0246999264
21 1 2.0246999264 4.0493998527 2.0246999264
22 1 2.0246999264 12.1481995582 2.0246999264
23 1 2.0246999264 2.0246999264 4.0493998527
24 1 2.0246999264 2.0246999264 12.1481995582
25 1 6.0740997791 2.0246999264 0.0
26 1 14.1728994846 2.0246999264 0.0
27 1 2.0246999264 6.0740997791 0.0
28 1 2.0246999264 14.1728994846 0.0
29 1 0.0 0.0 8.0987997055
30 1 8.0987997055 0.0 0.0
31 1 0.0 8.0987997055 0.0
32 1 0.0 2.0246999264 10.1234996319
33 1 8.0987997055 2.0246999264 2.0246999264
34 1 0.0 10.1234996319 2.0246999264
35 1 2.0246999264 0.0 10.1234996319
36 1 10.1234996319 0.0 2.0246999264
37 1 2.0246999264 8.0987997055 2.0246999264
38 1 2.0246999264 2.0246999264 8.0987997055
39 1 10.1234996319 2.0246999264 0.0
40 1 2.0246999264 10.1234996319 0.0
41 1 0.0 4.0493998527 4.0493998527
42 1 0.0 12.1481995582 12.1481995582
43 1 0.0 12.1481995582 4.0493998527
44 1 0.0 4.0493998527 12.1481995582
45 1 4.0493998527 0.0 4.0493998527
46 1 12.1481995582 0.0 12.1481995582
47 1 4.0493998527 0.0 12.1481995582
48 1 12.1481995582 0.0 4.0493998527
49 1 4.0493998527 4.0493998527 0.0
50 1 12.1481995582 12.1481995582 0.0
51 1 12.1481995582 4.0493998527 0.0
52 1 4.0493998527 12.1481995582 0.0
53 1 0.0 6.0740997791 6.0740997791
54 1 0.0 14.1728994846 14.1728994846
55 1 0.0 14.1728994846 6.0740997791
56 1 0.0 6.0740997791 14.1728994846
57 1 4.0493998527 2.0246999264 6.0740997791
58 1 12.1481995582 2.0246999264 14.1728994846
59 1 4.0493998527 2.0246999264 14.1728994846
60 1 12.1481995582 2.0246999264 6.0740997791
61 1 4.0493998527 6.0740997791 2.0246999264
62 1 12.1481995582 14.1728994846 2.0246999264
63 1 12.1481995582 6.0740997791 2.0246999264
64 1 4.0493998527 14.1728994846 2.0246999264
65 1 2.0246999264 4.0493998527 6.0740997791
66 1 2.0246999264 12.1481995582 14.1728994846
67 1 2.0246999264 12.1481995582 6.0740997791
68 1 2.0246999264 4.0493998527 14.1728994846
69 1 6.0740997791 0.0 6.0740997791
70 1 14.1728994846 0.0 14.1728994846
71 1 6.0740997791 0.0 14.1728994846
72 1 14.1728994846 0.0 6.0740997791
73 1 6.0740997791 4.0493998527 2.0246999264
74 1 14.1728994846 12.1481995582 2.0246999264
75 1 14.1728994846 4.0493998527 2.0246999264
76 1 6.0740997791 12.1481995582 2.0246999264
77 1 2.0246999264 6.0740997791 4.0493998527
78 1 2.0246999264 14.1728994846 12.1481995582
79 1 2.0246999264 14.1728994846 4.0493998527
80 1 2.0246999264 6.0740997791 12.1481995582
81 1 6.0740997791 2.0246999264 4.0493998527
82 1 14.1728994846 2.0246999264 12.1481995582
83 1 6.0740997791 2.0246999264 12.1481995582
84 1 14.1728994846 2.0246999264 4.0493998527
85 1 6.0740997791 6.0740997791 0.0
86 1 14.1728994846 14.1728994846 0.0
87 1 14.1728994846 6.0740997791 0.0
88 1 6.0740997791 14.1728994846 0.0
89 1 0.0 4.0493998527 8.0987997055
90 1 0.0 12.1481995582 8.0987997055
91 1 8.0987997055 0.0 4.0493998527
92 1 8.0987997055 0.0 12.1481995582
93 1 4.0493998527 8.0987997055 0.0
94 1 12.1481995582 8.0987997055 0.0
95 1 4.0493998527 0.0 8.0987997055
96 1 12.1481995582 0.0 8.0987997055
97 1 0.0 8.0987997055 12.1481995582
98 1 0.0 8.0987997055 4.0493998527
99 1 8.0987997055 4.0493998527 0.0
100 1 8.0987997055 12.1481995582 0.0
101 1 0.0 6.0740997791 10.1234996319
102 1 0.0 14.1728994846 10.1234996319
103 1 8.0987997055 2.0246999264 6.0740997791
104 1 8.0987997055 2.0246999264 14.1728994846
105 1 4.0493998527 10.1234996319 2.0246999264
106 1 12.1481995582 10.1234996319 2.0246999264
107 1 4.0493998527 2.0246999264 10.1234996319
108 1 12.1481995582 2.0246999264 10.1234996319
109 1 0.0 10.1234996319 14.1728994846
110 1 0.0 10.1234996319 6.0740997791
111 1 8.0987997055 6.0740997791 2.0246999264
112 1 8.0987997055 14.1728994846 2.0246999264
113 1 2.0246999264 4.0493998527 10.1234996319
114 1 2.0246999264 12.1481995582 10.1234996319
115 1 10.1234996319 0.0 6.0740997791
116 1 10.1234996319 0.0 14.1728994846
117 1 6.0740997791 8.0987997055 2.0246999264
118 1 14.1728994846 8.0987997055 2.0246999264
119 1 6.0740997791 0.0 10.1234996319
120 1 14.1728994846 0.0 10.1234996319
121 1 2.0246999264 8.0987997055 14.1728994846
122 1 2.0246999264 8.0987997055 6.0740997791
123 1 10.1234996319 4.0493998527 2.0246999264
124 1 10.1234996319 12.1481995582 2.0246999264
125 1 2.0246999264 6.0740997791 8.0987997055
126 1 2.0246999264 14.1728994846 8.0987997055
127 1 10.1234996319 2.0246999264 4.0493998527
128 1 10.1234996319 2.0246999264 12.1481995582
129 1 6.0740997791 10.1234996319 0.0
130 1 14.1728994846 10.1234996319 0.0
131 1 6.0740997791 2.0246999264 8.0987997055
132 1 14.1728994846 2.0246999264 8.0987997055
133 1 2.0246999264 10.1234996319 12.1481995582
134 1 2.0246999264 10.1234996319 4.0493998527
135 1 10.1234996319 6.0740997791 0.0
136 1 10.1234996319 14.1728994846 0.0
137 1 0.0 8.0987997055 8.0987997055
138 1 8.0987997055 0.0 8.0987997055
139 1 8.0987997055 8.0987997055 0.0
140 1 0.0 10.1234996319 10.1234996319
141 1 8.0987997055 2.0246999264 10.1234996319
142 1 8.0987997055 10.1234996319 2.0246999264
143 1 2.0246999264 8.0987997055 10.1234996319
144 1 10.1234996319 0.0 10.1234996319
145 1 10.1234996319 8.0987997055 2.0246999264
146 1 2.0246999264 10.1234996319 8.0987997055
147 1 10.1234996319 2.0246999264 8.0987997055
148 1 10.1234996319 10.1234996319 0.0
149 1 4.0493998527 4.0493998527 4.0493998527
150 1 12.1481995582 12.1481995582 12.1481995582
151 1 12.1481995582 12.1481995582 4.0493998527
152 1 4.0493998527 4.0493998527 12.1481995582
153 1 12.1481995582 4.0493998527 12.1481995582
154 1 4.0493998527 12.1481995582 4.0493998527
155 1 4.0493998527 12.1481995582 12.1481995582
156 1 12.1481995582 4.0493998527 4.0493998527
157 1 4.0493998527 6.0740997791 6.0740997791
158 1 12.1481995582 14.1728994846 14.1728994846
159 1 12.1481995582 14.1728994846 6.0740997791
160 1 4.0493998527 6.0740997791 14.1728994846
161 1 12.1481995582 6.0740997791 14.1728994846
162 1 4.0493998527 14.1728994846 6.0740997791
163 1 4.0493998527 14.1728994846 14.1728994846
164 1 12.1481995582 6.0740997791 6.0740997791
165 1 6.0740997791 4.0493998527 6.0740997791
166 1 14.1728994846 12.1481995582 14.1728994846
167 1 14.1728994846 12.1481995582 6.0740997791
168 1 6.0740997791 4.0493998527 14.1728994846
169 1 14.1728994846 4.0493998527 14.1728994846
170 1 6.0740997791 12.1481995582 6.0740997791
171 1 6.0740997791 12.1481995582 14.1728994846
172 1 14.1728994846 4.0493998527 6.0740997791
173 1 6.0740997791 6.0740997791 4.0493998527
174 1 14.1728994846 14.1728994846 12.1481995582
175 1 14.1728994846 14.1728994846 4.0493998527
176 1 6.0740997791 6.0740997791 12.1481995582
177 1 14.1728994846 6.0740997791 12.1481995582
178 1 6.0740997791 14.1728994846 4.0493998527
179 1 6.0740997791 14.1728994846 12.1481995582
180 1 14.1728994846 6.0740997791 4.0493998527
181 1 4.0493998527 4.0493998527 8.0987997055
182 1 12.1481995582 12.1481995582 8.0987997055
183 1 12.1481995582 4.0493998527 8.0987997055
184 1 4.0493998527 12.1481995582 8.0987997055
185 1 8.0987997055 4.0493998527 4.0493998527
186 1 8.0987997055 12.1481995582 12.1481995582
187 1 8.0987997055 12.1481995582 4.0493998527
188 1 8.0987997055 4.0493998527 12.1481995582
189 1 4.0493998527 8.0987997055 4.0493998527
190 1 12.1481995582 8.0987997055 12.1481995582
191 1 4.0493998527 8.0987997055 12.1481995582
192 1 12.1481995582 8.0987997055 4.0493998527
193 1 4.0493998527 6.0740997791 10.1234996319
194 1 12.1481995582 14.1728994846 10.1234996319
195 1 12.1481995582 6.0740997791 10.1234996319
196 1 4.0493998527 14.1728994846 10.1234996319
197 1 8.0987997055 6.0740997791 6.0740997791
198 1 8.0987997055 14.1728994846 14.1728994846
199 1 8.0987997055 14.1728994846 6.0740997791
200 1 8.0987997055 6.0740997791 14.1728994846
201 1 4.0493998527 10.1234996319 6.0740997791
202 1 12.1481995582 10.1234996319 14.1728994846
203 1 4.0493998527 10.1234996319 14.1728994846
204 1 12.1481995582 10.1234996319 6.0740997791
205 1 6.0740997791 4.0493998527 10.1234996319
206 1 14.1728994846 12.1481995582 10.1234996319
207 1 14.1728994846 4.0493998527 10.1234996319
208 1 6.0740997791 12.1481995582 10.1234996319
209 1 10.1234996319 4.0493998527 6.0740997791
210 1 10.1234996319 12.1481995582 14.1728994846
211 1 10.1234996319 12.1481995582 6.0740997791
212 1 10.1234996319 4.0493998527 14.1728994846
213 1 6.0740997791 8.0987997055 6.0740997791
214 1 14.1728994846 8.0987997055 14.1728994846
215 1 6.0740997791 8.0987997055 14.1728994846
216 1 14.1728994846 8.0987997055 6.0740997791
217 1 6.0740997791 6.0740997791 8.0987997055
218 1 14.1728994846 14.1728994846 8.0987997055
219 1 14.1728994846 6.0740997791 8.0987997055
220 1 6.0740997791 14.1728994846 8.0987997055
221 1 10.1234996319 6.0740997791 4.0493998527
222 1 10.1234996319 14.1728994846 12.1481995582
223 1 10.1234996319 14.1728994846 4.0493998527
224 1 10.1234996319 6.0740997791 12.1481995582
225 1 6.0740997791 10.1234996319 4.0493998527
226 1 14.1728994846 10.1234996319 12.1481995582
227 1 6.0740997791 10.1234996319 12.1481995582
228 1 14.1728994846 10.1234996319 4.0493998527
229 1 4.0493998527 8.0987997055 8.0987997055
230 1 12.1481995582 8.0987997055 8.0987997055
231 1 8.0987997055 4.0493998527 8.0987997055
232 1 8.0987997055 12.1481995582 8.0987997055
233 1 8.0987997055 8.0987997055 4.0493998527
234 1 8.0987997055 8.0987997055 12.1481995582
235 1 4.0493998527 10.1234996319 10.1234996319
236 1 12.1481995582 10.1234996319 10.1234996319
237 1 8.0987997055 6.0740997791 10.1234996319
238 1 8.0987997055 14.1728994846 10.1234996319
239 1 8.0987997055 10.1234996319 6.0740997791
240 1 8.0987997055 10.1234996319 14.1728994846
241 1 6.0740997791 8.0987997055 10.1234996319
242 1 14.1728994846 8.0987997055 10.1234996319
243 1 10.1234996319 4.0493998527 10.1234996319
244 1 10.1234996319 12.1481995582 10.1234996319
245 1 10.1234996319 8.0987997055 6.0740997791
246 1 10.1234996319 8.0987997055 14.1728994846
247 1 6.0740997791 10.1234996319 8.0987997055
248 1 14.1728994846 10.1234996319 8.0987997055
249 1 10.1234996319 6.0740997791 8.0987997055
250 1 10.1234996319 14.1728994846 8.0987997055
251 1 10.1234996319 10.1234996319 4.0493998527
252 1 10.1234996319 10.1234996319 12.1481995582
253 1 8.0987997055 8.0987997055 8.0987997055
254 1 8.0987997055 10.1234996319 10.1234996319
255 1 10.1234996319 8.0987997055 10.1234996319
256 1 10.1234996319 10.1234996319 8.0987997055
