ITEM: TIMESTEP                                    
5000000                                           
ITEM: NUMBER OF ATOMS                             
       25756
ITEM: BOX BOUNDS pp pp pp                         
  -100.00000000000000        100.00000000000000     
  -100.00000000000000        100.00000000000000     
  -100.00000000000000        100.00000000000000     
ITEM: ATOMS id type x y z c_strOrder
           1          18 ( 0.56777182229932632     , -1.2086938235984992     ) ( 0.18357599984377748     , 0.28186600824149699     )
           2          24 ( -1.0894479700343753     ,-0.99026921095286746     ) (-0.92396177700394810     , 0.59492280925510366     )
           3          19 ( 0.71267221120759383     , -1.0166318077966328     ) ( 0.58186823709459068     , 0.63192920149931964     )
           4          12 ( -6.8244280892599027E-002,-0.95543445785948844     ) ( 0.71468972012463716     , 0.36196019989398726     )
           5           9 ( 0.26991103088932900     , 0.83939103249629787     ) ( -3.5442120359864548E-003,-0.67702036574269908     )
           6          22 (-0.66990419302756221     ,  1.6569011603351627     ) (-0.21758284871078104     ,-0.59649393208539314     )
           7          12 ( -9.3873881342617871E-002, -3.5231113916974088E-002) (-0.32975994308321221     ,-0.44560245553606975     )
           8          10 ( 0.32144343163034717     ,  9.3692295553003083E-002) (  9.7565500330516058E-002,-0.46806937953257033     )
           9          19 ( -1.0176305201208229     , -1.1399492463711038     ) ( 0.86825334974301827     , -1.3356687123423860E-002)
          10          11 (-0.18903138404342443     , 0.82726119077040328     ) (  6.3978623830612452E-002, 0.12329100473024837     )
          11          19 ( 0.59153754537343295     ,-0.47862038383957972     ) (-0.35433176805656119     , 0.25529884195342994     )
          12          23 (-0.47796038069983782     ,-0.14025418630930730     ) (-0.65008782505091800     ,  1.1086406606411918     )
          13          25 (  1.8630160436276013     , -9.6545880959308050E-002) (-0.88304984612212234     , 0.62313110603860578     )
          14          11 ( 0.77017409922875235     ,-0.10636766266084868     ) (  1.2219625553294505E-002,-0.41782398664607467     )
          15          11 ( -8.3413863546540942E-002, 0.35788396829259783     ) (  5.7943229202408436E-002, 0.49570597715407250     )
          16          22 (  3.0460630906023467E-003,-0.87784451010923403     ) ( 0.43964001530797869     , -1.1571055287452425     )
          17          12 ( 0.47508294174951765     , 0.59292953210077681     ) (-0.14068310503328826     , 0.14418251555143954     )
          18          25 (-0.39771346611545488     ,  1.6471158697570898     ) ( 0.56167001986258791     ,  1.5939101326551153     )
          19          23 (-0.18290236897466247     ,-0.60549514973241070     ) ( 0.79315963680697033     , 0.58571415931655446     )
          20          23 (-0.76264503528807981     , 0.95004395229711924     ) (  8.6312464162222907E-002, -1.9782580390430087     )
          21           9 (  8.5336492370601619E-002, 0.24045964896589178     ) (-0.39734493931731585     ,-0.56333390932076943     )
          22          19 (  1.5418617100249763     , -5.9053156580408217E-002) (-0.28667217573919679     , 0.27116236127820842     )
          23          20 (  1.6346017687592549     , 0.94439151671846389     ) (  7.9974973873271626E-002,-0.89261783433827735     )
          24          26 (-0.62022312796521872     , -1.1705648609667012     ) (-0.53264513013625647     , -1.0868578032708287     )
          25          26 (-0.41611324780935072     , 0.13390110871152247     ) (-0.42835644313987625     , 0.12918405516375586     )
          26          23 (-0.19729218908437779     , 0.19593427977654429     ) ( -1.5811004284864605     ,-0.89415255095101465     )
          27          25 ( 0.42389854704584690     , 0.18244385525158885     ) (  2.0998896756032792     ,  1.1442991380706222     )
          28          12 ( 0.26229358472052378     ,-0.34095493657333581     ) (-0.27134452211629068     ,-0.25683155811509567     )
          29          22 (  1.2500777278827999     , -3.6030212462724170E-003) ( 0.42869567731258551     ,  1.0013498793419746     )
          30          23 ( -1.2997041921098451     , 0.25327054609181798     ) ( -5.5650325577111109E-002,  5.4935786636803416E-002)
          31          28 ( -1.1562048027607161     , -1.2112478411773555     ) ( 0.34485201943955268     ,-0.36542908927220652     )
          32          28 (-0.63473872406121423     , 0.90599341917457477     ) (  1.0515776977880142     , -9.2939911597721275E-002)
          33          22 ( 0.99606449551721932     , -1.7184883239167410     ) (-0.99877881702668792     ,-0.49989726889018027     )
          34          12 (-0.40083187242690599     ,-0.11946271744574066     ) (-0.82559684443571890     ,-0.13223256391218458     )
          35          19 ( 0.59758115074736218     ,-0.11079146320148220     ) (-0.23861012248026409     ,-0.43402863020330679     )
          36          19 (-0.19520926744226408     ,-0.80070265778556338     ) ( 0.68858054861105211     ,-0.59279630128366267     )
          37          24 ( 0.88728429998557479     ,  1.5589422698057001     ) (-0.28692393041158404     , 0.89808942336739284     )
          38          26 ( 0.19104548902399590     ,-0.63951468855378857     ) ( 0.70270500104787303     ,  1.0899396150489347     )
          39          14 ( 0.66837729769368992     , 0.61653277798772832     ) ( 0.52042540052950470     ,  4.2477830283005474E-002)
          40          13 ( 0.48798485981607492     ,-0.27082637928189196     ) ( 0.12800442301934381     , -7.8012427296994508E-002)
          41          16 (-0.16390658188710658     , 0.15188454923154029     ) ( 0.63615429318189887     ,-0.26605417037822870     )
          42          16 ( 0.18992551708965316     , 0.86915108900310056     ) ( 0.95935898473043157     , 0.47496028561900561     )
          43          22 ( -1.0243609899164801     , -7.2893342514588233E-002) ( 0.34730813379579573     , 0.89125558136523975     )
          44          25 (  1.7021689736940182     , 0.54137625245447674     ) ( 0.70072104824443426     ,-0.11905488891078428     )
          45          21 ( 0.55676517405003723     ,-0.29456832579807335     ) ( 0.43873716082057590     , 0.80646305938108709     )
          46          21 (-0.26562845164838705     ,-0.77223490324198374     ) (-0.19615726281122706     ,  1.1034252648873426     )
          47          17 ( 0.12939830683257936     ,-0.78617788579462711     ) ( 0.58620345442188082     ,-0.21830934674255736     )
          48          12 ( 0.30582142457484440     , 0.45468345165177054     ) ( 0.30859439497433938     , 0.58717715748003418     )
          49          22 ( -1.9484349509826276E-002,-0.56422839598334606     ) ( -1.3880762961668884     , -1.2774584658556281     )
          50          20 (-0.88146890393691635     , 0.23483702001629286     ) (-0.53361434595476309     ,-0.36531344373796987     )
          51          22 ( 0.21960915210169241     , 0.99064938917018819     ) ( 0.57672825385012882     ,  2.1749649595341869     )
          52           9 (-0.35513852985581079     ,-0.44425429635765340     ) (-0.22844041991590414     , 0.34881719165250202     )
          53          14 ( -1.1369601753990113     ,-0.75365358751252476     ) ( 0.67074481450835821     , 0.51892219699824682     )
          54          25 (-0.31029331895549556     ,  1.4576060807538609     ) ( 0.15899294263077954     , 0.43298347491542777     )
          55          26 (  1.1948347838675246     , 0.27899600766636651     ) ( 0.15876668447948897     ,-0.74230043446342453     )
          56          22 (-0.62577984283255472     , 0.79284231151712170     ) ( -1.2410154137595628     ,-0.70684280906882191     )
          57          27 (-0.63738880173249424     ,  1.4812618146280965     ) (  1.1345895039074290     ,  7.1439472266366433E-002)
          58          13 ( 0.22121949359365192     , 0.13705205495559664     ) ( -1.0365238595318571E-002,-0.42305726917786862     )
          59          21 (  1.0829392612193147     ,-0.52537226055065345     ) (-0.61298788932098824     ,-0.70108762408234382     )
          60          12 (-0.29093254141082725     , 0.37202094257140172     ) (-0.85187492173535362     , 0.36971801967486950     )
          61          18 ( -2.9931504746046833E-002, -1.3138338671647798     ) ( 0.34543056176490244     , 0.37290409473207436     )
          62          20 (-0.13989952272455697     ,-0.68674035978824455     ) (-0.46091111707806165     , 0.44762101038034191     )
          63          20 (-0.60572438252285721     ,-0.82283620926269441     ) (  1.4431216023089348     ,-0.53023263027551426     )
          64          25 ( 0.13282153746285849     , -1.2165526488028189     ) ( -2.0947407147561249E-002, 0.69435809277373450     )
          65          25 ( 0.88920606346476627     ,-0.66401206123304957     ) ( -1.8192606841461640     , -1.7736019525010236     )
          66          22 (-0.42063853292261189     , 0.81916835899976914     ) ( -2.3700530281542385     , 0.23330265327119121     )
          67          24 (-0.51469260157966901     ,  1.7705925311027584     ) ( 0.44763781329118157     ,-0.25081370607753972     )
          68          27 ( 0.36878866297280477     , 0.48319824473735667     ) ( 0.29105735115701259     ,-0.23226308233835719     )
          69          27 ( 0.22469951795024828     , 0.54308930898959340     ) (  1.3157900920747765     ,-0.75150792662039989     )
          70          19 (  1.1471115801782350     , 0.47714827054435527     ) (-0.70846914665996941     ,  3.2990159266527770E-002)
          71          24 (-0.97267012517930074     , 0.36198465408786962     ) (-0.46569145547196850     ,  1.7749186993232651     )
          72          23 (-0.78554083580918799     , 0.49186707214885583     ) ( 0.63073593185576970     ,-0.17161513112310287     )
          73          22 (  1.1085321200751053     ,  1.6902441599167284     ) ( -1.4362823759130834     , -1.1020725444965109     )
          74          27 (  1.4664975041209880     , -1.9809969981118711E-002) (-0.23959228621296760     , 0.28728341907946819     )
          75          25 ( -1.4836013670799626     ,-0.44308032413631671     ) (-0.37900439293629762     , 0.19293729967294887     )
          76          27 (-0.21129102377400699     , -1.0420029439497311     ) ( 0.33526923506554340     , -9.4163911570444181E-002)
          77          27 ( -1.1730815900025529     , 0.63504027701686772     ) ( -1.2450602240039110     , 0.43366145934027939     )
          78          27 ( 0.39859920414468736     , 0.25890310718528209     ) ( -1.2882245775916110     ,-0.76844730940989570     )
          79          30 ( 0.43520602356775206     , 0.76361779339160818     ) (  1.1185681751350696     ,-0.18846879988718457     )
          80          18 (-0.49144937102904329     ,-0.59151907703141138     ) (-0.19711648124167627     ,  1.4756953929747949     )
          81          12 ( 0.14007350817505371     , 0.80712892934667502     ) (-0.18958555857475257     ,-0.15932818268304069     )
          82          20 ( 0.16458758312013172     ,  1.9173934834328985     ) (-0.10954356904736823     ,-0.44804770183201958     )
          83          28 (-0.63478722154733003     ,-0.71111900181817889     ) (-0.56320381366640249     , 0.26892306346262529     )
          84          24 (-0.43669266842695814     ,-0.10935085852682425     ) ( -1.5606708954036403     , -1.2382364371910859     )
          85          24 (  1.4381227037891127     , -1.2832655500369181     ) (-0.34121187084095350     , 0.25815481972905829     )
          86          31 (-0.16082042120831627     ,-0.94464836612984804     ) ( 0.68432433093806533     , 0.87665848794134948     )
          87          30 ( -6.7993334880759426E-002, -1.7713215508877376     ) ( 0.12210614628548250     ,  1.0657035613374222     )
          88          21 ( 0.43656005733250569     ,-0.65807813947179272     ) ( 0.12682376685130886     , 0.20902575689821079     )
          89          16 ( -2.5498517775101863E-002, 0.48430275127881972     ) ( 0.53839027568149800     ,-0.39756481477796268     )
          90          19 ( -1.2196706356768096E-002, 0.85111678009959879     ) ( -8.2130592903070399E-002,-0.48225260763524347     )
          91          10 ( -7.8559251316563994E-002,-0.33942251535817825     ) ( 0.21278945140333166     ,  4.3979495657871279E-002)
          92          24 ( 0.44322849260656894     ,-0.10731129217210526     ) (-0.76755904485328263     ,-0.33753217425466203     )
          93          19 (-0.90996411614412054     , -4.6553966829601390E-003) (  1.5750562181093262     ,-0.16184866387475547     )
          94          28 (  9.1429200469681324E-002, 0.79042391964188707     ) (-0.11690348694021616     ,-0.23754914547012512     )
          95          26 ( 0.89855851686281940     ,  1.2411832650741028E-002) (-0.12976139054493643     ,  7.7699755702443613E-002)
          96          24 ( -1.7197093902651117     ,-0.28798888897856645     ) ( -1.6016550655550990     , 0.25811708594118882     )
          97          25 (-0.66973267958152538     , -1.3922565428636724     ) ( 0.22886004251392389     ,-0.28463535697464387     )
          98          28 (-0.18885846943094353     ,  3.2521050582350941E-002) ( 0.94925927990259706     ,-0.60979266284284439     )
          99          15 (  1.0337470105120470     ,-0.29090614176136781     ) (-0.65956170594652586     ,-0.27723624461872010     )
         100          21 (-0.60137831047207790     ,-0.91016465950986081     ) ( 0.42207199937485940     ,-0.46116516403120300     )
         101          27 (-0.59229181306268641     ,-0.48158798073198406     ) ( -1.1679998319316338     ,-0.11831434898267190     )
         102          23 (-0.70316537082474229     , -1.3336029835072505     ) ( 0.82681730034664125     ,-0.28171093830448457     )
         103          25 ( 0.72884826559775029     , 0.67799839477523016     ) (-0.28343749310948879     , -1.0476242544061893     )
         104          26 (  1.8710328441340565     ,-0.24947376885174347     ) (-0.17539720031003087     , 0.22201165205645762     )
         105          27 ( -1.2291841882196288     ,-0.99022847518381674     ) ( 0.22000060601260329     , 0.66513184676093018     )
         106          22 ( -1.0628292410166433     ,-0.46949502869050869     ) ( 0.44636135794754411     , -1.2512768135605685     )
         107          25 ( -1.1176959753096480     , 0.18709281135723915     ) ( 0.36804102525701621     , -1.1088024161906267     )
         108          28 (  1.2413340262418997     , 0.62357910596690147     ) (-0.58011333786372210     ,-0.56409231868564125     )
         109          18 (-0.19217378852214140     ,-0.42497880669271004     ) ( 0.14280443604845605     ,-0.89191508060940061     )
         110          16 (-0.26655741986557385     ,-0.35504080622308920     ) (-0.51372071603719582     ,-0.18003003346095758     )
         111          25 (-0.61404960554926480     , -1.0185572871365163     ) ( -1.4041750079264113     , 0.92799389964645196     )
         112          21 (-0.34376369872692258     ,-0.19419637930870015     ) ( 0.20067403769448061     ,-0.95646451068191429     )
         113          12 (-0.30166433535401688     , 0.50804933379162120     ) (-0.22767159336445456     ,  3.9677947628074473E-002)
         114          14 (-0.19488910216032895     ,-0.21334384417404942     ) ( 0.48260199141187204     ,-0.12146273802185033     )
         115          19 (-0.16338798374825059     , 0.12466222308547460     ) (-0.68283004674292913     ,-0.79921235931089663     )
         116          23 (-0.32509251943291051     ,-0.86324601139492274     ) (-0.28571553497458624     ,-0.69006101261774200     )
         117          21 ( -8.5497873834980476E-002,-0.61943584347539427     ) ( -1.1479689991965056     ,-0.57825340396670477     )
         118          16 (  7.6369164498358122E-002,-0.12918817301915303     ) (  2.9995133779316674E-002,-0.13713120667147197     )
         119          19 (-0.21375867506332907     ,-0.44591010043990020     ) ( -2.6873657185474680     ,-0.58240639887979961     )
         120          25 ( 0.27014372944708054     , -3.7518221603205837E-002) ( 0.43756091596815716     , 0.53513556615862701     )
         121          20 ( -1.0449411975223422E-002,-0.63875567377797315     ) ( -1.5004521243500313     ,-0.65329489384212058     )
         122          12 ( 0.14178580831731785     ,-0.37548670998967160     ) ( -3.6713191640335444E-002, 0.20902626940425731     )
         123          18 (-0.85241760234043862     ,  1.1091044284749112     ) (-0.81825450170845082     ,-0.57601451805910286     )
         124          17 ( 0.50554244872984710     ,-0.89758643563940799     ) (-0.28553246198222798     , -1.5207907198805604E-002)
         125          26 ( 0.36035705670970941     ,  3.0849965259372815E-002) (-0.13915947006911455     ,-0.21129643626260300     )
         126          25 (-0.43688753648319861     ,-0.48125028270395404     ) ( 0.10391452913338917     , 0.73747928055534095     )
         127          23 ( 0.58013693092726049     , 0.97947327423881914     ) ( 0.94886188991805342     , 0.89747010811843442     )
         128          25 ( 0.89720076382958314     , -1.4105628165499202     ) ( 0.97460734225196410     ,-0.74549152759755444     )
         129          30 ( 0.35225436467040089     , -1.8534710169255200     ) ( -1.0917731555486683     ,  1.7374554214085443     )
         130          27 (-0.61579107366493535     , -4.8945581999061530E-002) ( 0.10508901945702914     , -2.2687206331164385     )
         131          26 (-0.85597356539369684     , 0.87802773273210266     ) (  1.9668027639713315E-002, 0.51198150836284062     )
         132          18 (-0.14622033246316257     , 0.52156275177800160     ) ( 0.42532720773999610     , 0.18026120045267896     )
         133          23 ( 0.34082635073328360     , 0.96526534911889117     ) (  9.6785202093090911E-002, -1.3553626482535830     )
         134          12 (-0.79745653582957998     ,-0.21255706759236515     ) (-0.15167136458725894     , 0.11348947932881875     )
         135          26 (-0.44079748039606376     ,-0.47592464220755715     ) ( 0.40997224603068566     , 0.28266881949923350     )
         136          23 ( 0.54375451635281413     , -1.2305612688147489     ) ( 0.72256300058699208     , 0.20029680022165725     )
         137          23 (  1.8940047062988246     ,-0.73034307863726555     ) ( -1.3997854595295709     , 0.10617400614512730     )
         138          27 ( 0.24652544385833930     ,-0.92728987363740434     ) (-0.16988580104484410     , 0.14887241195261824     )
         139          23 (-0.20613694689282425     ,-0.20749880198304893     ) ( -3.6534070366881652E-002,-0.78923290215386688     )
         140          26 (-0.53876424174610860     , 0.30092273819710080     ) (  1.1251361877307158     , 0.36172533538587792     )
         141          27 (-0.72408052824660762     ,-0.24828393624016745     ) ( 0.15130131218739040     ,-0.52100650142607985     )
         142          26 (-0.10524874003682774     ,-0.69050260337367164     ) (  9.6876855714616933E-002, 0.48073508785910313     )
         143          28 ( 0.31276723891290087     , 0.38774927119661950     ) ( 0.32711643192240186     ,  8.9527235653336507E-002)
         144          18 (-0.32702091086457974     ,  4.3445238951030252E-002) ( 0.24161963855498983     ,-0.20015842552833185     )
         145          24 ( 0.86937800584874336     , 0.53150646804204005     ) ( -1.2849272958620221     ,-0.92957546709734540     )
         146          21 (-0.71104101487459614     , 0.34095907021416372     ) (  1.7344951962208401     ,-0.49274149163544190     )
         147          25 ( -1.5170419856049611     ,-0.32564057996001305     ) (-0.13906803040609789     ,  5.2564324115184857E-002)
         148          21 (-0.31356362125122683     , 0.56877266313475094     ) (-0.30516267612856718     ,  2.4786301633182970     )
         149          25 ( 0.47148002520985161     ,-0.51705019318997825     ) ( -1.2385812691658871     ,-0.25327835491678741     )
         150          30 ( 0.75151476983725884     , -7.9981666448502686E-002) ( 0.55143481630536306     ,-0.29623591893577955     )
         151          28 ( -4.2922639638146402E-002, -1.6651882519153050     ) (  1.1839172059910095     , 0.21510786962454348     )
         152          22 (-0.17646839263332781     ,  1.6627103139189092     ) (-0.28737768287228649     ,-0.65179502696526359     )
         153          29 ( 0.76690194786813715     , -1.5007322959054434     ) (-0.92792924437422175     ,-0.98618941738203658     )
         154          23 ( 0.67030097925438525     ,-0.56165848825336206     ) (-0.53656810042242575     , -1.0577699910809302     )
         155          21 (-0.19642884631165727     , 0.23781225679426687     ) (-0.60329084165964675     ,  6.9800764886745276E-002)
         156          13 (-0.15329382180366050     , -2.5460388184451940E-003) (  1.5546391296465706E-002,-0.27584837922925576     )
         157          23 ( 0.67208364179186875     ,-0.72828363547189645     ) (  1.7652046462426281     , 0.13908521524581860     )
         158          26 (-0.55336588106685880     ,  1.5766581316542783     ) (  9.7050065252838685E-002,-0.20028427442861013     )
         159          19 ( 0.37641114487112648     , 0.15316032647419242     ) ( -2.6847283711480263E-003, -8.1918461090333919E-002)
         160          24 ( 0.47236746590001927     ,-0.84276606545187538     ) ( 0.74352263483126868     ,  1.0872767476354908     )
         161          22 (  1.1179268702280052     ,  1.4137228677515088     ) (  1.0123278247227772     ,-0.35025357889817260     )
         162          22 (-0.45721055490475815     , 0.37260844743739324     ) ( -1.0538582787378159     ,-0.76096572944638896     )
         163          20 (  7.6384164367211016E-002,-0.67727654081500432     ) (-0.53224675288899803     , 0.16841904161875249     )
         164          27 ( 0.99515628224384911     , 0.90844594988946648     ) ( 0.18454459472886847     ,-0.30785043048383193     )
         165          25 ( 0.58292339607902399     , 0.24998470419466950     ) ( 0.12089106275613544     , 0.51480152395122436     )
         166          20 ( 0.31599279607244229     ,-0.29280313313102801     ) (-0.25264712626626501     ,  1.3187885264498387     )
         167          24 ( 0.91118790326160803     ,-0.56580280841700736     ) ( 0.65595687680038572     ,-0.70785281432779312     )
         168          25 (  1.4631309285110892     , -6.2287844760257227E-002) ( 0.95073226302657887     ,  1.1288826112062544     )
         169          30 ( 0.52113236224965465     ,-0.72803762553815654     ) ( 0.88831024466420971     , 0.53858055577896247     )
         170          19 (  1.5706461150648075E-002, 0.43457105238583277     ) ( 0.23125349422331823     , 0.31678887830296065     )
         171          13 (-0.34073065541777370     ,-0.50945133623360206     ) (-0.83005893176288859     , 0.26845540419633807     )
         172          28 (-0.15412208313425510     , 0.92293980585285929     ) ( -4.4855646464341779E-003, 0.36260998370142633     )
         173          25 ( -1.7382789566298982     ,-0.92239168211785039     ) (-0.38144129811228505     , 0.13409910786905449     )
         174          26 ( 0.35422168069213078     ,  1.3806055226593643     ) (-0.29865210258015878     ,-0.34593532587351761     )
         175          23 (  5.4194455241198924E-002,-0.48189810491641433     ) ( 0.33908037111711087     ,-0.62330482387935071     )
         176          25 (  2.2945032725139267     ,-0.71937387487033277     ) ( 0.33299956805939324     ,-0.15193052397786072     )
         177          28 (  1.1293471346793089     , 0.93335965849388747     ) ( -1.1614860120971733     , 0.29372393417292286     )
         178          26 ( 0.16058443870654926     ,-0.22835818248917358     ) ( 0.39710240145864883     ,-0.69812221819318898     )
         179          21 ( -1.1672944091037731     ,-0.59224759730121390     ) (-0.25237257107572136     , 0.42371013185183037     )
         180          28 (-0.52561574212613627     ,-0.30943627480995267     ) ( 0.55147172422589552     ,  1.1632877699496187     )
         181          19 ( 0.46232598566071947     , -9.1985871535083308E-002) (  1.4874249417170546     , 0.71297995727334129     )
         182          18 ( -2.2209614201163130E-002, 0.91279169307282215     ) (-0.18582100867186635     ,-0.92821162959653702     )
         183          15 (  3.6927352161719759E-002,-0.64117025677504236     ) (-0.13383053467815906     , -9.9747201161708321E-002)
         184          27 (-0.15177908054714428     , -1.1662394196647867     ) ( -1.5299085116188427     , 0.34675109212121885     )
         185          26 (  1.1038895725740077     , 0.78697836782041697     ) ( -7.0033359159950237E-002,  1.3942847378498873     )
         186          22 ( 0.74313970536539253     , 0.49531938782505791     ) (  9.3362221125609435E-002, 0.64418040158781398     )
         187          22 (-0.60949126156688860     ,-0.37547513604054777     ) (-0.15849236375109890     , 0.74776731037275201     )
         188          26 (-0.49230232053330591     , 0.30942981400548381     ) ( 0.85203380578256871     , -2.9600189726412110E-002)
         189          20 ( 0.57601329586963479     ,-0.53111562244841981     ) ( 0.85035106785955406     , 0.48560590501489276     )
         190          24 (-0.64495522778863723     , 0.85053574731181070     ) (-0.34075673745981305     ,  2.2850355823741584     )
         191          16 ( 0.26253695075428335     , 0.54318212334063687     ) (-0.22956426219864784     ,-0.61996495321179146     )
         192          14 (-0.21550137340946945     , -2.5570395536122503E-002) (-0.54269322043180568     ,-0.24414510091100769     )
         193          19 ( 0.92312498057637016     ,  1.3843067969221150     ) (-0.30144259540223761     , 0.67807917271672047     )
         194          24 ( -1.2262297755572720     , -1.0504463547264689     ) ( -1.1149968567703408     ,-0.27232235102436519     )
         195          21 (  1.0913496771215463     ,-0.23306043117163117     ) ( -1.2672939833117813     , -1.5279623983730724     )
         196          23 ( 0.35913151219113459     ,  1.7728569063277835     ) ( 0.39451292785696890     , -2.2780047075133680     )
         197          26 ( 0.19730929395033031     , 0.71132928466421574     ) ( -1.9758141766245656     , -6.1571389844557047E-002)
         198          24 ( -1.6740663754840956E-002,  3.7664879775186219E-002) ( 0.75780742545454394     ,-0.41759817631473412     )
         199          25 (-0.14657344550401136     , -1.3325930749834356     ) ( 0.64336801605320248     , 0.68776506338796151     )
         200          27 (  1.2872825218208557     , 0.83991352707430256     ) ( 0.27760949296369758     , 0.23105973853695810     )
         201          14 ( 0.14780011780600275     ,-0.12611179947701523     ) ( -4.2542932345825124E-002,-0.23214441341737141     )
         202          17 ( 0.10725323063751169     ,  1.6481861221579519E-002) ( 0.59499529080472535     , 0.12232271699763314     )
         203          26 ( -2.0844084728299184E-002,-0.40211430547030452     ) (  1.4274074068066920     ,-0.40330935723154926     )
         204          23 ( 0.90978558701402978     , 0.34001333530794686     ) (-0.42152497879883860     , 0.32919781581792806     )
         205          25 ( 0.53138406118832915     , 0.22856817143631245     ) ( 0.13938114451358086     ,  2.3163896225344316     )
         206          22 (-0.38293507692450474     ,-0.68468229290236704     ) ( -2.8139903172235359E-002, 0.38758705985882602     )
         207          14 ( 0.66423007189880390     , 0.18398166523752202     ) (  7.5782566160025475E-002,-0.63499266637226626     )
         208          24 (-0.91560700985730537     ,  1.1809429667655900     ) ( 0.95247278110412725     ,-0.66555574452607313     )
         209          14 ( 0.23370102709843096     , 0.18067210935368050     ) ( 0.12808170582632084     ,-0.26547507305507390     )
         210          15 (-0.24835287654954080     ,-0.22411706649053259     ) (-0.13555003691246270     , 0.11436959619709186     )
         211          22 (-0.67804019972433038     , -1.1479347744306876     ) (-0.31172356011600355     ,-0.89465476968090829     )
         212          25 ( 0.24231333271070615     , 0.22890529723877631     ) ( 0.32884168515092771     , -1.2533768184374927     )
         213          21 (-0.28466963902851117     ,-0.32082867955361455     ) (-0.22081333135869707     ,-0.44546278622716673     )
         214          23 ( 0.73290141433801248     ,-0.17179492301742866     ) (  3.5491194360250805E-002, -2.8905879076853283E-002)
         215          13 (-0.24655196835342300     , -7.2269015152796323E-002) ( 0.35341697551422380     , 0.10089795521918898     )
         216          17 (  1.1667779968435037     , 0.72067732620143687     ) ( 0.38254957663834399     ,-0.90385623605916043     )
         217          12 (  4.1220574896854018E-003,  3.1089038863590088E-002) ( -3.3561113477222265E-002, 0.16730862936890736     )
         218          21 (-0.10641243473521003     , 0.47947400831451964     ) ( -1.0295367461428746     ,-0.31024652534922159     )
         219          18 (-0.44692988858798854     , -9.8126735468399479E-002) (-0.13388076125093273     , 0.22126575946279847     )
         220          23 (-0.21703940045398931     ,-0.46883558419703569     ) (-0.76822757823843879     , 0.18259042251739827     )
         221          14 ( 0.27216318817855700     , 0.40942332619779365     ) (-0.31167713966615840     , 0.30809428904018404     )
         222          21 ( 0.34914481758552707     ,  1.5487230643614085     ) ( 0.49512965740552511     ,  9.8162429132563594E-002)