ITEM: TIMESTEP
5000000
ITEM: NUMBER OF ATOMS
25756
ITEM: BOX BOUNDS pp pp pp
-1.0000000000000000e+02 1.0000000000000000e+02
-1.0000000000000000e+02 1.0000000000000000e+02
-1.0000000000000000e+02 1.0000000000000000e+02
ITEM: ATOMS id type x y z fx fy fz vx vy vz c_ea 
506 2 -34.7463 -4.82676 -28.1486 1.0965 0.265663 0.823815 0.7441 1.75505 -2.68023 -3.36864 
1648 2 -34.7673 -7.20343 -0.18522 -1.29383 0.205481 0.075357 -3.09935 0.669349 -1.62528 -4.20562 
12884 2 -35.6807 0.194648 -26.8306 0.361538 -0.0478772 -0.634156 -4.83796 0.535067 1.90776 -3.68035 
2860 1 -34.4085 1.00665 -29.5511 0.690845 -0.535172 0.574309 -2.08428 -5.18663 2.27474 -3.29774 
13132 1 -36.0017 5.09152 -27.2866 0.500342 -0.00334136 0.544407 -0.760424 -2.19177 1.22516 -3.08862 
13410 2 -33.618 6.83434 -27.1084 -0.185545 -0.807209 1.4529 -2.53738 2.67966 -8.98814 -4.0518 
12932 1 -34.3677 9.82372 -27.1011 0.601415 0.0139204 0.203403 0.263291 -3.48071 1.76982 -3.71274 
444 1 -34.803 -14.818 -23.3951 -0.0181112 0.847511 0.206587 -2.51888 -1.05759 -1.52731 -3.33218 
446 2 -34.7571 -11.5049 -23.6327 0.573658 -0.404312 -0.507004 -5.48712 -4.10999 1.52072 -3.84472 
632 1 -35.2858 -7.96509 -26.9616 -0.315489 1.05316 0.235098 2.0727 0.237238 -0.215578 -3.30326 
587 2 -36.3597 -6.89991 -24.1927 0.517241 -1.31756 -0.331556 0.516372 -1.54082 1.18779 -3.57303 
451 2 -34.7273 -9.15472 -24.5098 0.42863 0.216763 1.15469 6.46912 -4.43407 -5.58546 -4.15895 
7762 2 -33.7868 -6.85307 -24.4555 -1.84464 -0.00589934 -1.36158 -6.19074 0.962261 -3.33452 -4.08905 
7766 1 -34.1797 -11.2072 -26.5158 0.640302 -0.228074 0.143231 -0.158803 0.839421 -0.320241 -3.33727 
497 1 -36.3191 -2.49264 -27.3623 0.846815 -0.0569863 0.546933 -0.245245 -3.84646 3.31466 -3.28505 
3248 2 -41.8637 -4.47157 -0.206214 0.798679 -0.700891 0.606837 -0.384993 -5.40819 4.9275 -4.12873 
2841 1 -37.8791 -4.03039 -23.9917 0.426522 -0.0831061 0.822216 0.687124 -0.399568 -0.160716 -3.48957 
492 2 -35.1346 -5.36553 -23.0284 0.266523 1.44008 0.718731 4.84256 -2.54881 3.00237 -4.21267 
8344 2 -35.2972 -3.03429 -24.0765 1.06016 -0.725391 -0.942371 2.85574 -0.722748 0.390087 -4.31422 
8059 2 -35.2807 -5.14606 -25.4383 -0.108796 0.53976 -1.10862 -0.0440254 -6.75316 -4.49882 -4.11214 
2900 1 -39.0714 -0.385006 -23.3262 0.832236 0.0562624 0.586718 -0.327221 -1.92057 -1.64374 -3.0413 
2850 2 -34.7622 2.42505 -26.9866 0.470289 0.089934 -0.269617 1.55866 1.18773 -1.53858 -4.15756 
7796 2 -36.1968 -0.84441 -24.7706 -2.66799 -0.933869 0.698361 -4.92668 -0.555717 2.73173 -3.98792 
13359 2 -36.1172 0.592843 -22.9056 -0.839145 0.962387 1.56242 -1.21277 4.44546 3.06038 -4.38408 
13651 2 -34.7272 0.977045 -24.8025 0.893516 0.160755 -0.309603 -0.167448 5.03656 -2.85885 -4.24438 
13086 2 -34.1854 -1.26718 -25.5554 1.29199 -0.233184 -1.55551 -5.12274 5.285 1.97011 -3.93552 
13357 2 -34.288 -0.900174 -23.2697 0.749565 -0.432576 0.537707 -0.0764004 5.19238 0.459196 -4.35629 
13175 1 -37.3409 2.18533 -25.1845 0.355313 0.165606 0.472092 0.353892 1.48789 -0.560962 -3.57751 
12948 2 -36.4446 5.03677 -24.1262 0.531976 -0.163503 0.274771 -0.839964 3.0874 2.33265 -3.97058 
520 2 -36.1583 3.07287 -22.4312 1.0352 0.0126681 -0.638137 2.45997 4.7089 -0.451823 -4.24629 
13466 2 -34.5222 3.28591 -24.7625 -2.5596 0.396363 1.48849 -0.95766 -0.277299 -0.802887 -4.08578 
3167 2 -34.4119 4.86191 -22.6429 0.535085 -1.50904 0.0308854 1.12359 1.46873 -0.344206 -4.19859 
3031 2 -34.1143 5.42192 -24.8235 -0.0855422 2.34377 -1.4787 -3.26071 4.41508 -5.01181 -3.93551 
13190 1 -37.971 7.54484 -23.0783 0.512502 0.0255543 -0.0296258 1.62915 -1.51297 -2.31546 -3.65807 
13360 2 -35.3992 7.32682 -25.5878 -0.671832 0.149239 0.238126 5.7826 -0.113002 -2.70982 -3.68137 
3165 2 -35.2756 9.57855 -24.2381 -0.257829 -1.1035 -0.0481091 -4.78305 -2.53022 -2.34609 -3.93 
13240 2 -34.9412 7.20972 -23.2806 -1.19925 -0.260292 1.21564 3.53879 -3.28275 -4.27803 -4.31112 
8635 2 -33.7575 1.12536 -19.1445 1.84632 0.827061 -1.35003 1.74842 -1.41667 -1.66459 -4.21386 
18248 1 -35.9701 25.7179 -2.74009 -0.224815 -0.206628 0.0332474 4.15662 -0.173455 1.57356 -3.46921 
12970 1 -37.1605 12.079 -23.3927 -0.471308 -0.559113 -1.71018 -2.33852 -0.885767 2.36847 -3.09708 
13428 2 -36.5299 14.7193 -22.397 1.20631 1.58148 -0.922682 -2.99777 1.00454 -1.4289 -3.33576 
13459 2 -35.2555 14.0939 -24.5218 0.124145 -1.00535 0.174576 0.359694 5.08453 -6.28095 -3.37279 
14610 2 -34.1241 15.8001 -23.4352 -0.552682 -1.03473 -0.483883 -4.15969 0.844843 5.66152 -3.84489 
13365 2 -34.4438 11.756 -23.5613 0.499095 -0.173127 -0.638365 4.6605 -5.14674 -0.104593 -4.21576 
12878 2 -33.7044 12.335 -25.8553 0.791346 0.0373708 0.465215 0.0955989 -2.18383 5.13859 -3.75706 
14366 1 -33.4258 12.7358 -14.3334 -0.910927 -0.751 -0.906428 3.80694 -1.91919 0.423325 -3.2608 
611 2 -34.3718 -18.3292 -19.6574 0.661371 0.996532 1.02294 -0.584103 0.35138 -7.26217 -3.42147 
614 1 -36.0457 -15.3808 -19.658 -0.53896 0.417424 -0.0504792 1.10585 -0.812903 0.303557 -3.43602 
2962 2 -35.0236 -12.0071 -21.2131 -0.690388 -1.55577 0.109825 -5.93386 1.04436 -3.76382 -3.97145 
521 2 -36.9749 -11.7998 -19.8747 0.376915 0.130117 1.23177 -2.22531 3.35899 -3.35989 -3.49669 
485 2 -34.8291 -12.6708 -18.7635 0.185303 -0.0619567 -0.640944 -0.274016 -1.79713 -0.453922 -4.25114 
2851 1 -39.3717 -7.74648 -20.3341 0.669691 0.193834 -0.000879364 0.117794 -3.29739 0.196839 -3.01827 
2843 1 -36.8067 -10.0297 -22.6738 0.0355996 0.854079 0.658214 0.558426 1.0532 -2.56343 -3.63728 
2974 2 -34.6142 -7.57193 -22.3591 -1.79034 -0.365981 1.06151 2.94247 -1.48267 0.326431 -4.1744 
523 2 -36.023 -7.82519 -20.1638 0.345721 -0.99114 0.0436486 2.59067 0.756534 5.40106 -4.20718 
517 2 -37.4022 -9.44646 -19.0874 0.240302 0.162133 0.180319 0.0128396 1.30416 3.1521 -3.99209 
2845 2 -35.0751 -10.0974 -19.8824 -0.965135 1.17618 0.645988 -3.23749 -4.80162 1.55139 -4.21707 
13005 1 -33.898 25.7576 -14.6899 0.0584304 1.14523 -0.830736 -0.991801 4.39563 0.071728 -3.31044 
2883 2 -39.4321 -5.5328 -18.448 0.371575 0.424646 1.33654 3.6449 -1.7403 -4.19235 -3.9153 
2858 1 -40.5184 -2.51135 -18.6881 -0.683752 0.459895 -0.111652 -2.42102 0.0850243 2.65616 -3.70555 
527 2 -38.912 -4.51699 -20.6227 0.355953 -0.800861 -0.662192 0.114845 2.34846 -1.03006 -3.4953 
2914 2 -38.4259 -2.26722 -20.8322 0.364485 0.760386 -0.505851 2.88622 0.106156 6.08195 -3.95021 
13046 2 -36.9661 -6.69643 -21.9081 -0.135789 1.175 -0.04625 0.428474 -4.73895 -2.94696 -3.85714 
2836 2 -36.4236 -4.09264 -21.3486 -0.708439 -0.943551 0.0235162 -4.66234 4.37775 -5.78405 -4.24735 
2842 2 -34.733 -5.87796 -20.6331 -0.339854 -0.0895622 -0.580371 -6.73486 -0.0616433 -2.67767 -4.33054 
2877 2 -37.3474 -5.89668 -19.5056 0.931217 0.166303 -0.836424 3.88806 -3.82544 6.3317 -4.08866 
2899 2 -38.0312 -3.41928 -18.7249 1.69299 -0.166406 -0.0337833 3.58686 1.66443 0.537994 -4.22881 
2846 2 -35.4995 -4.36684 -18.966 -1.31315 0.560464 -1.35249 5.0708 -3.03747 2.03902 -4.25384 
416 2 -36.0845 -2.17274 -20.0169 -0.0980641 -1.12793 1.72037 -3.25306 -1.98317 -5.57725 -4.1768 
2905 2 -39.3544 0.182448 -20.5847 0.157163 -0.46641 1.43287 -5.89712 -0.543476 -1.12999 -3.66689 
13044 2 -36.4198 -1.85744 -22.4254 -0.337184 0.0025892 0.162371 3.49555 -2.26234 -3.99905 -4.2805 
13405 2 -38.0885 1.93464 -21.5746 -0.131704 -2.3653 -1.02632 -3.79995 0.558442 3.23774 -3.91379 
2857 2 -37.0674 -0.338552 -20.7727 -0.787364 1.84627 -0.21685 2.81876 3.27116 -3.80753 -3.96285 
13180 2 -35.7561 1.53383 -20.4485 -0.0905858 1.56661 -0.957865 -1.31139 0.521705 0.294853 -4.29 
13134 2 -37.9865 -0.801762 -18.4969 1.00732 -0.647305 -1.70505 -0.902903 7.63143 4.52694 -4.2217 
2847 2 -35.6902 0.126096 -18.6128 -0.807473 -2.02766 -0.162373 3.62166 1.99255 1.30364 -4.16957 
2855 2 -37.8535 1.7309 -19.1504 0.206302 -2.81684 0.395915 4.58336 3.15356 1.1913 -4.05989 
2903 2 -34.5463 -0.500478 -20.8791 -0.322641 -0.240314 0.122207 1.60036 -5.57304 3.67813 -4.46527 
14696 2 -34.4017 20.7213 -1.16085 0.273249 -0.161342 -0.25615 5.43149 0.605497 -0.692519 -4.01663 
13407 2 -38.3111 4.04881 -22.4117 0.354123 1.37108 -0.142812 -1.93218 1.21056 1.87518 -3.48115 
2863 1 -40.576 2.94282 -19.7833 1.11901 0.167687 -0.00436505 -1.68649 2.02243 -1.51257 -3.67437 
13233 2 -38.4502 5.7731 -20.6471 0.33635 0.225454 0.123806 2.79229 4.61966 -1.94449 -3.94902 
13929 2 -38.5555 5.01738 -18.4004 0.820307 -1.61494 -0.294064 -2.78141 3.58031 -1.89608 -4.20871 
2944 2 -36.3422 5.63167 -21.7595 -0.78744 -0.173626 0.252213 2.64279 0.00272699 -0.310871 -4.20165 
13458 2 -37.2565 3.47442 -20.2104 1.07872 3.95483 0.127272 1.94236 -0.996257 -0.277968 -3.95704 
12966 2 -36.306 5.66503 -19.3207 0.359482 -0.835079 -0.10296 -4.24852 -2.02901 -3.00546 -4.32897 
13784 2 -34.7245 3.77204 -20.5364 -0.391384 0.316828 0.487893 5.13484 -1.22921 -1.71342 -4.3852 
2922 1 -33.7859 6.81349 -20.4299 -0.948237 -0.636417 1.36465 -3.98337 -0.992902 1.5712 -3.4914 
2935 1 -40.518 6.74503 -18.806 -1.3842 -0.475416 0.152593 5.93662 1.30884 -3.819 -2.90154 
3358 2 -39.0605 8.51845 -20.0368 1.60776 0.361384 -0.0496448 6.81466 -1.90804 1.90254 -3.64633 
13254 1 -39.6124 11.7551 -19.5484 -0.0889577 -0.222866 -0.0510989 -6.47284 -3.46136 -4.54823 -3.47928 
13978 2 -35.8227 9.29107 -21.9083 0.180446 -0.660016 -1.36634 -1.77258 3.19316 -2.4109 -4.19671 
8312 2 -37.7075 10.3347 -21.0901 0.172819 0.175347 0.979271 -6.99207 -0.332226 2.56219 -3.88274 
5244 2 -36.7324 7.7559 -20.4815 -0.685368 -0.147101 1.0502 3.14085 -3.47883 0.935902 -4.27628 
3036 2 -35.1472 9.87524 -19.6968 -0.730956 -0.0428462 -0.00739401 3.47914 2.86604 -0.285895 -4.33726 
2859 2 -37.3756 9.74868 -18.6617 -0.514082 -0.400613 0.205747 -4.02697 4.26463 2.14199 -4.33588 
18377 2 -37.7482 7.21983 -18.2414 -0.551041 1.95759 -0.967463 2.12488 -2.0658 4.00774 -4.15058 
12930 2 -35.5028 8.18155 -18.1881 0.0297214 -1.27692 0.647978 0.64154 3.93641 0.659625 -4.29647 
3158 2 -38.3599 14.4781 -19.2655 0.460998 0.248223 -0.0565098 3.04617 2.0213 1.52245 -3.3775 
13661 2 -37.5353 13.1958 -21.1457 -1.0723 -0.975139 1.37253 -0.124664 5.96579 -5.28225 -3.53801 
2949 2 -34.5095 13.6288 -22.1297 0.196333 0.394082 -0.417068 -1.2326 1.40929 4.19798 -4.09204 
3454 2 -35.4931 11.5796 -21.4296 0.199506 0.429215 0.479671 -2.52674 -4.2591 1.37699 -4.28981 
3011 2 -35.654 14.0785 -20.2184 -0.732553 0.186654 1.32729 -7.85527 -7.06963 -0.233225 -4.11012 
13878 2 -36.5542 11.957 -19.3856 -0.210525 -0.395488 0.833697 0.848517 -2.07222 -0.570866 -4.36094 
13504 2 -34.8816 13.4744 -17.9203 -0.853552 -0.990648 -0.179346 -4.37647 7.14611 -2.05085 -4.27526 
14323 2 -36.5925 15.4639 -17.83 -0.389068 0.115436 0.519689 1.84017 5.93373 -0.162641 -4.0859 
13832 2 -34.2477 15.8922 -21.1071 0.121091 0.51913 -0.0914583 5.11722 2.48035 -1.47151 -4.18104 
13851 2 -34.0283 11.911 -19.5098 0.256676 -0.348473 0.0936568 -0.632098 0.171449 2.11703 -4.37267 
13178 1 -36.534 17.0627 -20.576 0.482997 -0.118416 0.579066 2.80952 0.233005 -1.13925 -3.76006 
18126 2 -35.1995 19.7524 -19.2332 0.89901 -0.141948 -0.577826 -5.30169 -7.22731 -4.96934 -3.48739 
12980 2 -34.5268 15.572 -18.6971 1.31238 2.365 -0.854254 0.740242 -4.11161 -0.992612 -4.21867 
5290 2 -37.3399 22.1003 -3.66808 1.10009 -0.565265 -0.120736 -0.708493 2.61271 1.02161 -3.84196 
13244 1 -34.182 21.7515 -21.3292 0.309828 -0.0798875 0.206793 0.677498 0.658121 5.14464 -3.27729 
570 1 -35.2488 -19.2653 -16.9403 -1.29271 -0.870398 0.551279 0.349475 0.966037 1.21631 -3.18891 
750 2 -34.1571 -21.6215 -14.8169 0.525926 0.413419 0.816693 3.8418 3.10398 1.88449 -3.54177 
13420 2 -33.5352 18.0766 -18.7897 0.805401 -0.762202 0.246876 -4.69056 0.205537 0.473071 -4.22809 
498 2 -35.2046 -16.6874 -16.9228 -0.475236 -0.0635038 0.275547 -1.7346 3.13465 2.04494 -3.81584 
2874 1 -38.0481 -15.7324 -15.6463 0.508111 -0.949193 -0.480408 -4.62216 4.2998 1.58751 -3.28656 
855 2 -35.7047 -18.2273 -13.9611 -0.995065 0.223059 0.762806 -1.45 -3.10586 -1.37642 -3.84369 
555 2 -35.2286 -15.9302 -14.7027 0.594461 -0.115739 -0.28333 5.32662 0.246798 0.919825 -4.2231 
3163 1 -33.5634 14.318 -4.04648 0.766286 -0.327572 0.679866 -1.25176 -2.7003 -0.218065 -3.21918 
2981 1 -40.5743 -12.7537 -14.0286 -0.0995527 -0.352057 -0.038849 -2.66026 2.75855 -0.533755 -3.00851 
934 2 -38.5794 -12.8957 -15.8427 -0.351997 -0.860435 0.344726 -5.72735 4.09071 -0.58755 -3.67921 
788 2 -38.1704 -11.2031 -17.6615 -1.16835 -0.0992501 0.273289 1.2605 5.87523 7.6564 -3.57378 
468 2 -36.9031 -13.2397 -17.3666 1.10976 0.327538 -2.38858 -0.591821 3.23824 3.80531 -3.88791 
907 2 -34.6282 -14.3913 -17.0958 -1.22207 0.643868 0.788745 -0.677036 -4.50969 -0.841912 -4.23617 
13314 2 -36.2229 -13.7505 -15.3175 -0.162109 -0.722444 1.36969 1.71839 -1.25435 -6.22569 -4.01137 
768 2 -37.6557 -12.0461 -13.736 0.513112 -1.65134 0.920422 -2.64903 0.389293 -4.10099 -4.3261 
793 2 -34.9139 -11.7829 -13.8148 -0.17097 0.0287013 -0.0829983 3.92011 -5.0875 -3.11949 -4.51495 
637 2 -34.6786 -12.217 -16.1289 1.70198 0.271417 -1.26774 -6.90094 -3.41138 -0.0277323 -4.22612 
779 2 -36.7602 -11.4595 -15.6497 0.612427 1.11061 -0.372401 -1.2665 1.5346 3.11657 -3.92026 
2896 1 -40.1273 -8.15578 -16.9258 -0.645166 -0.539898 -0.101607 -1.41285 0.288646 3.65474 -3.30404 
2964 2 -39.0016 -10.6859 -15.1566 -0.0399647 1.14192 -0.215648 5.86004 4.8832 1.67586 -4.21093 
2954 1 -41.3698 -9.46995 -13.657 -1.15308 -0.180059 -0.257122 -4.60526 0.0887677 -0.692286 -2.97838 
2961 2 -38.5958 -8.29748 -14.672 -0.173675 -0.0723117 -0.90959 -3.85949 -6.14775 -1.64641 -4.33238 
630 2 -40.5426 -6.72046 -13.8842 -0.0730038 -0.410826 -2.27167 -1.01263 -0.709685 -3.44668 -3.97438 
2960 2 -35.8773 -10.8638 -17.8082 0.0505929 0.921304 0.775569 -1.11683 1.2872 -1.28462 -3.99225 
2854 2 -37.7353 -7.41853 -17.7294 0.376168 0.0482721 -0.622516 -1.03315 0.440522 -1.52814 -4.27906 
529 1 -34.3368 -7.39744 -17.8914 -1.39306 -0.440426 -0.143212 2.09374 -3.96396 1.68873 -3.9086 
526 2 -37.3401 -9.31653 -16.3993 0.881933 0.0571857 -0.512237 6.92199 -4.07377 2.09705 -4.2728 
3093 2 -34.9551 -9.59663 -15.6989 -0.387185 -1.7782 -0.868731 -4.02843 -0.548365 -3.16068 -4.34572 
629 2 -34.1686 -7.70146 -14.7895 -0.452422 2.41577 -1.19357 -0.955509 1.20554 3.96074 -4.01265 
952 2 -36.4619 -7.19361 -15.5844 -0.573511 -0.161589 -0.00677661 4.46369 -4.04247 0.579009 -4.43282 
2998 2 -40.8741 -5.09401 -16.2888 0.711739 0.130819 0.00249 -3.06818 1.8508 3.97123 -3.53548 
2965 2 -39.5609 -4.69575 -14.2701 -0.00165433 1.51342 0.59474 0.364205 0.953311 -2.08106 -4.15873 
2907 2 -40.5246 -2.72239 -15.6319 -1.45472 0.835616 1.63249 4.657 2.19872 -0.916137 -3.92622 
2897 2 -38.8158 -3.76679 -16.5508 1.36136 -1.30658 -0.12794 0.779991 4.88759 -2.17065 -4.21308 
773 2 -38.7293 -6.16537 -15.7887 0.244086 -0.211165 -1.14825 1.04808 -7.23543 3.6634 -4.1199 
2917 2 -38.3389 -2.66771 -14.2344 1.51933 1.01625 -1.88982 7.29839 0.130308 -4.08645 -4.22291 
2878 2 -38.0002 -6.3594 -13.463 0.0468513 -0.397953 0.031715 -1.65084 -5.17507 -1.54301 -4.43414 
528 2 -36.8426 -5.31875 -17.2467 -0.288765 0.385705 0.450776 4.50003 -2.86708 0.0419916 -4.36044 
7964 2 -34.7324 -5.38733 -15.8162 0.0918384 -0.416876 0.0698052 9.45244 -2.95101 -1.30027 -4.31846 
2852 2 -37.0774 -4.65462 -14.9434 0.242997 -0.0151147 0.478902 4.51413 1.8325 -2.04744 -4.43381 
8056 2 -34.8372 -3.77787 -14.0489 -0.109514 0.00926991 0.655483 1.19517 -1.83539 2.59195 -4.40305 
530 1 -35.9714 -2.47922 -16.4417 -0.27194 1.35423 -0.437266 -2.37718 -0.594982 -4.27646 -3.97539 
2892 1 -42.7046 -0.798247 -14.3778 -0.368769 -0.137225 1.32727 1.93096 -0.611233 1.85489 -3.16863 
13649 2 -39.6082 0.768367 -17.9672 -0.728292 -1.14006 -0.305435 0.0617709 3.57272 -7.84298 -3.94042 
2920 2 -38.8542 -1.26287 -16.4302 -0.454448 0.86 1.18316 -0.687602 -2.37009 0.142774 -4.2848 
2916 2 -41.3117 -0.36302 -16.4431 2.50304 0.770874 -0.117523 -0.148568 2.25196 -1.42362 -3.41246 
2908 2 -40.0036 -0.581828 -14.0897 0.534127 -0.550776 -1.25385 -0.983768 -2.27941 0.794841 -4.19255 
3139 2 -41.0353 1.44935 -14.5162 -1.04069 1.04497 0.229617 -2.43508 4.23471 -1.3253 -4.00692 
3004 2 -39.1007 1.27672 -15.6967 0.5821 -1.16513 -0.766273 -5.93779 3.14853 0.139087 -3.93493 
2909 2 -40.9769 2.3062 -16.9148 -0.867425 -1.37578 1.18677 -4.17224 -1.13611 -5.25299 -3.47582 
2934 2 -36.9272 0.603058 -16.7321 -1.54853 -0.426565 0.650311 -1.59203 6.05143 -2.74834 -4.22845 
2995 2 -37.7092 -0.0145557 -14.3968 0.92605 -1.80372 -0.640011 5.2494 -5.96006 6.3237 -4.12373 
3014 1 -35.813 2.05746 -14.2684 0.489641 -0.203536 -0.496445 -0.880219 -0.68604 -0.4276 -3.81569 
3430 2 -34.757 10.85 -0.197836 0.521006 -1.41259 -0.668297 -4.56487 1.78533 1.47605 -4.10361 
1096 2 -33.3815 -23.748 -6.61604 -0.524822 -0.81903 -1.41455 -1.79245 1.771 -2.26108 -4.18206 
2867 2 -38.6941 2.93603 -17.3611 0.281407 -0.00728323 0.487074 -1.41826 -1.82016 2.3082 -4.15088 
2911 2 -40.4543 4.43143 -16.5797 0.333493 1.74092 0.0236454 -3.51055 -3.88291 3.32606 -3.85265 
2940 1 -42.3831 4.69538 -14.492 0.581782 -0.299359 0.218453 0.208775 -2.03876 0.887269 -3.7037 
2865 2 -39.4099 3.31837 -14.7049 -0.384194 0.180691 -0.0331561 4.83498 1.26137 -2.01275 -4.16004 
3330 2 -39.586 5.6535 -14.1997 -0.563411 0.512849 -0.420965 -7.23883 3.82725 5.51832 -4.22675 
13179 2 -38.7816 6.07236 -16.3544 -1.44167 1.70092 0.531105 4.84371 -5.09121 -4.66172 -4.02081 
3015 1 -35.4234 2.87101 -17.4363 -0.336727 0.593759 -0.192909 1.02307 -1.08276 -1.6241 -3.68815 
13877 2 -34.4107 5.82925 -17.3434 0.178124 -0.133573 -0.842983 4.39446 -3.70209 1.42354 -4.13781 
3142 2 -36.5942 5.73108 -16.9658 0.555776 0.626241 0.491971 -3.37378 -3.10834 4.19157 -3.81574 
2862 2 -37.5326 4.18805 -15.6852 0.349944 -0.463598 1.08387 -4.76799 -4.56364 -3.32222 -4.12615 
14179 2 -34.9341 4.9694 -15.1194 -0.288502 0.0374578 0.209203 -0.701062 -0.47965 -3.46633 -4.40992 
3051 2 -37.4586 6.92774 -14.5615 0.930834 -0.789968 -0.484573 -3.9718 2.54719 -6.90529 -4.28291 
2938 2 -39.4856 8.90253 -17.5991 0.565993 0.569278 0.570341 -6.13795 -1.85616 0.133984 -3.96943 
13505 2 -41.2128 6.99438 -15.8413 1.0641 -0.624558 0.137634 3.95766 0.306499 -6.46408 -3.43798 
13497 1 -41.1064 10.5189 -15.2958 -1.20623 -0.0212569 -0.981685 -3.35584 -1.75415 -0.966615 -3.4018 
2928 2 -39.4149 8.20291 -14.9645 -0.220558 -0.616903 -0.0620573 -1.81776 1.99347 4.0468 -4.2484 
2868 2 -38.42 10.3735 -15.028 -0.557638 -0.277157 1.74284 5.3733 -0.0549218 -1.08896 -4.1024 
14026 2 -38.6713 11.2637 -17.0197 0.813013 -0.12484 -1.07938 5.01509 3.476 2.12135 -4.02945 
3032 1 -35.0635 10.7676 -16.6051 -0.787187 -0.201586 -0.511311 0.128483 1.51584 0.412401 -3.66635 
13549 2 -37.4445 8.70776 -16.309 0.615434 -0.806035 -0.953372 -3.97435 -1.80364 -3.05716 -4.29433 
3033 1 -36.5269 9.3114 -13.3515 0.482252 0.716347 -0.513778 0.867905 -4.33914 -0.50099 -3.22259 
14411 2 -35.0625 7.60231 -15.7627 -0.925296 -0.145029 0.226801 0.0380636 -1.61312 2.69559 -4.33734 
13203 2 -39.5676 13.468 -17.0134 -1.04754 0.681371 0.283053 -3.39257 -2.13325 3.72782 -3.46144 
2945 1 -40.4155 15.3722 -13.9987 1.00038 -0.662364 0.611337 -3.52493 1.24072 0.644023 -3.48301 
18115 2 -39.4247 12.6769 -14.7705 1.188 0.21146 0.331938 0.157994 0.358843 -2.06267 -4.02263 
13195 2 -37.7302 13.9304 -13.283 -0.0325838 0.389996 -0.176644 -0.319981 -2.77892 -1.88384 -4.19878 
3372 2 -37.4269 13.3009 -17.5553 1.88913 -1.21108 0.758212 -2.9119 2.18689 0.478633 -4.09482 
14267 2 -38.0092 14.5828 -15.4618 -0.723911 -0.643966 -0.50625 3.29541 1.78971 -3.27815 -4.12675 
18164 2 -35.7294 14.1088 -15.8405 0.129644 -0.0976098 -0.759086 5.95371 3.29658 -1.21126 -4.35844 
13136 2 -36.987 12.0949 -15.2436 -0.781238 1.62714 -0.29553 3.70448 1.78048 1.9056 -4.21445 
3202 2 -35.4647 15.024 -13.7386 -0.0116111 0.318197 1.58551 0.512369 -2.1805 -1.73776 -4.43022 
7758 2 -34.0008 -9.97497 -22.0032 0.216744 0.117196 -0.0633247 -3.08115 0.448497 4.35059 -4.30912 
2872 1 -38.8637 16.6714 -16.868 0.564088 0.619787 -0.145895 -2.74075 -1.14489 -0.248975 -3.41339 
3029 2 -38.2267 18.5247 -14.1581 0.104848 -0.323677 -0.452824 -2.85468 -7.35441 1.8367 -3.35217 
13739 2 -37.5057 16.3963 -13.4048 0.229514 0.396532 -2.23884 -3.54814 10.4878 -1.37786 -3.8929 
13415 2 -35.4219 17.5355 -17.2869 -0.781598 0.570613 -1.44761 -2.25675 -3.84023 -0.535814 -4.11562 
14695 2 -36.5436 16.3708 -15.4573 0.4966 0.894494 -0.922975 4.5543 -0.151384 -1.7448 -4.15177 
13520 2 -36.1689 18.8677 -15.4152 -0.0621165 0.432142 -0.317865 -6.0934 -2.51221 -8.64402 -4.09655 
3316 2 -36.7794 19.5972 -17.5922 0.171531 -0.488115 0.887901 -2.15422 3.91663 3.37919 -2.91645 
18691 2 -33.8462 18.6472 -0.391165 -1.27384 -1.32112 1.34969 -3.14098 4.26251 -2.50179 -4.08897 
13547 1 -35.0858 22.5326 -17.8152 -0.377583 -0.213341 -0.898775 0.0927643 -2.018 1.9461 -3.24409 
5234 1 -37.2841 21.56 -14.199 -0.425246 -0.547122 -0.389126 -3.90378 -1.16572 -0.279554 -3.24379 
18961 2 -35.0662 22.8384 -13.6584 0.0531897 0.705346 -0.2644 -0.393592 -1.90727 -3.04419 -3.92667 
18388 2 -34.9129 20.9984 -15.4901 0.135301 -0.260644 0.922049 -7.67831 -0.217008 8.76593 -4.17071 
18081 2 -33.8805 23.1742 -15.7043 1.10792 -0.768217 1.21207 -4.61816 3.82922 0.279346 -3.93343 
2941 2 -33.7735 20.067 -17.3456 0.540325 -0.740999 0.45444 -5.20229 -3.64926 3.11396 -4.16538 
3242 1 -42.6498 -10.8269 -0.306915 -0.211892 0.361268 0.644511 -6.28603 -4.93244 2.12166 -3.59573 
552 2 -34.4846 -23.8959 -11.335 0.549118 -0.0189065 -1.67456 4.30521 3.69892 0.40246 -3.30908 
3096 1 -36.1762 -21.2789 -12.524 0.662894 0.157036 0.290167 1.49097 1.55619 1.17021 -3.53282 
571 2 -33.8485 -24.0382 -9.11469 -0.0898365 0.142177 1.24752 7.84343 -1.02764 -4.19585 -3.94182 
776 2 -35.8755 -22.8255 -9.78393 0.451571 0.86696 0.706731 -0.0929397 7.73223 -1.30862 -3.23112 
878 2 -35.5025 -20.4129 -9.80004 0.711241 -0.888218 -0.412468 4.49511 -3.18516 1.90256 -3.86703 
516 1 -38.2389 -17.8722 -11.7436 0.308974 0.759121 0.363852 -1.74286 4.62958 1.23664 -3.42867 
8588 2 -36.3637 -16.1805 -12.6715 -0.527921 -0.279963 0.322857 -0.00338603 -2.32462 0.918807 -4.12217 
1277 2 -35.2934 -18.7809 -11.6247 -0.488461 0.652923 0.25494 3.86847 1.80705 1.14372 -4.13691 
791 2 -36.6178 -18.4943 -9.54718 -0.599395 0.549655 0.422567 -1.18645 0.839054 -3.26985 -3.93605 
569 2 -35.5012 -16.5458 -10.4711 -0.254377 0.41583 -0.947891 1.75311 4.10724 -3.64733 -4.1981 
13042 2 -33.7527 -11.3966 -11.6507 -0.679682 1.69829 -0.118913 0.860698 -3.98115 1.49482 -4.27857 
3227 2 -38.7419 -12.916 -11.7578 0.480381 1.63226 0.670754 -0.371307 -4.28547 3.19549 -4.05932 
924 2 -39.274 -14.9941 -11.8503 -0.771821 -2.13912 1.78761 -2.23639 -4.47092 -3.49366 -3.28644 
766 1 -41.2049 -12.9482 -10.7012 -0.0894731 0.0871688 0.444013 2.20042 -2.1939 1.68834 -3.29583 
627 2 -39.2005 -11.4267 -9.40969 -0.973421 -0.716435 -0.334867 -4.42555 -0.179772 2.49823 -4.19235 
2955 2 -38.5178 -13.7141 -9.35649 0.106757 0.642501 0.579079 2.90737 0.724954 -4.34023 -4.16007 
902 2 -38.0223 -14.4068 -13.5338 1.30479 0.768116 -0.0906911 9.79636 0.88518 1.6199 -3.93041 
765 2 -35.6919 -14.012 -13.1089 0.0570376 0.662398 -0.694075 1.58042 2.54884 1.82091 -4.16507 
778 2 -37.0137 -14.5618 -10.8495 0.234988 -1.55217 -1.26213 7.07722 -0.529525 1.95614 -4.32798 
763 2 -34.5328 -14.437 -11.2794 0.0427306 -0.916926 2.0306 0.804283 1.2405 -0.0446703 -4.16337 
2963 1 -36.362 -11.852 -10.9774 0.173471 0.633846 0.356427 -1.50284 -0.485141 1.96255 -3.37478 
2876 1 -42.9703 -7.68553 -9.4205 0.565248 -1.13308 -0.202202 1.99772 2.00092 1.0885 -3.01354 
2986 2 -39.1814 -10.7176 -12.5567 -0.224138 -0.050702 0.0298102 -1.46016 -2.81391 -0.192824 -4.4534 
3083 2 -39.4288 -8.18371 -12.5654 0.506183 0.0238173 2.46958 -2.02849 -4.49983 1.45081 -4.23352 
2956 2 -41.735 -7.3148 -11.8833 -0.859913 -0.185283 -1.29945 1.7271 -6.85506 -1.48296 -3.62277 
3211 2 -40.5662 -9.92424 -10.8427 -0.906332 -0.182087 0.272703 3.61026 -0.0515793 5.72739 -4.07405 
3424 2 -40.0147 -9.13408 -8.63848 1.54067 0.0024577 0.0122027 -5.7028 -4.78276 1.76223 -4.01868 
3094 2 -40.269 -7.62781 -10.318 2.23519 0.205495 0.370717 -4.34514 -2.75339 -4.16893 -4.03284 
3388 2 -38.2647 -9.39781 -10.73 -0.856117 0.5507 1.0421 -3.79671 1.12292 -0.484963 -4.46293 
2969 2 -37.9042 -7.49296 -9.00454 -1.39776 -0.38431 1.63845 -4.55649 -0.351706 -4.48165 -4.16534 
774 1 -36.7145 -9.39963 -12.9808 1.35163 0.934059 -0.712909 0.819015 3.84056 -0.918728 -3.3266 
638 2 -36.0834 -8.69499 -9.96506 -0.676709 -0.509071 1.55879 5.52254 3.61965 3.61544 -4.23831 
2891 2 -37.6744 -6.93975 -11.1135 -0.787935 -0.309925 -1.6636 -1.33613 5.20499 2.29133 -4.34103 
3455 2 -34.2137 -7.48935 -8.67443 -0.273115 0.578426 -0.700995 0.488608 4.9431 -1.66948 -4.35205 
3787 2 -34.2309 -8.8928 -11.2068 1.05131 0.0208158 0.256949 -7.73188 -1.01325 6.23732 -4.27773 
18207 2 -36.6526 20.8339 -1.57673 -0.837472 -0.0752385 -0.420181 3.26804 1.43039 8.46339 -4.24487 
2927 2 -42.5726 -3.54619 -9.32839 1.44458 -0.259173 -0.274584 -1.76452 1.44944 -3.27172 -3.49679 
2875 1 -42.2381 -4.68796 -13.1933 0.125731 0.528926 0.516181 -4.28541 -1.44819 -0.110902 -3.54035 
2894 2 -40.0819 -2.63815 -12.9697 -2.50549 -0.725442 1.38221 2.53028 -0.184868 2.34092 -4.15713 
2895 2 -39.8802 -5.75604 -11.9046 0.464096 -0.318524 -0.154156 -2.26895 -2.89202 3.7145 -4.34459 
3218 2 -40.1438 -3.76544 -10.6587 -1.85535 1.36291 -1.38693 -3.18957 2.82112 -2.97565 -4.23882 
2879 2 -41.5788 -5.67574 -10.1838 0.359004 1.56104 1.08733 1.06637 4.88394 -2.49223 -4.01497 
2976 2 -38.9689 -5.4675 -9.70117 0.48663 -1.55329 0.486351 -2.5409 -1.44136 1.51921 -4.27089 
3115 2 -35.5179 -6.07945 -13.6471 -0.684899 -0.129765 1.11323 -1.3688 -0.0972928 -1.60777 -4.31274 
3612 2 -35.3606 -6.74303 -11.0094 1.02054 0.50781 -0.580481 -2.50657 5.82495 1.14214 -4.30894 
2989 1 -37.3338 -4.08682 -11.7148 -0.0622279 0.0177262 -0.67949 -2.79696 2.63749 -1.14694 -3.14839 
3215 2 -34.6529 -4.54555 -11.7404 0.754072 -0.690093 -0.690407 1.13833 -4.05718 -0.124271 -4.2101 
3043 2 -33.513 21.201 -13.1531 0.559076 0.0618401 0.242387 -3.79182 -0.367052 -3.07235 -4.3191 
3155 2 -42.8879 0.359446 -10.9768 0.486105 0.150058 -0.163292 -0.974586 0.562942 2.26 -3.4996 
3010 2 -42.5548 1.99094 -12.7328 0.532702 0.795463 0.599233 -4.6801 -0.711112 4.20661 -3.62902 
3012 2 -38.9088 1.51546 -13.1524 -0.0276193 0.590431 0.413578 -1.45293 -0.620767 5.9259 -4.35402 
2968 2 -40.5598 -2.0292 -9.07767 -0.933691 -0.342457 0.150735 -7.34899 -4.70333 1.69613 -4.18084 
3106 2 -40.8265 0.444547 -12.1231 0.267141 0.107155 0.466462 -0.791443 -1.00084 -1.29606 -4.20807 
3005 2 -41.6932 -1.72393 -11.1589 0.500115 -0.425521 -0.238723 0.790108 -1.04101 -0.30826 -3.99545 
3272 2 -40.587 0.260124 -9.51566 -0.296331 -0.681082 -0.571453 -3.20245 0.494369 -5.83509 -4.24801 
3001 2 -39.0299 1.67222 -10.6867 0.0165278 0.374359 -0.505536 4.75161 -2.17116 1.77331 -4.33168 
2918 1 -38.2802 -1.13546 -11.3802 -0.164685 0.737923 -0.000193427 -0.562415 -2.86159 -3.50949 -3.83207 
3009 2 -41.3789 2.16098 -10.3846 -0.444366 1.13591 -0.836066 -1.07725 -4.08597 -0.630725 -4.18828 
13232 2 -36.2001 -1.62403 -13.4782 0.0722274 -0.223525 0.527558 -1.34277 1.01379 3.13145 -4.20749 
5245 2 -35.1692 -2.3716 -11.2601 0.427181 1.05816 0.408221 -2.4111 -1.03851 3.66224 -4.27039 
10642 2 -35.0048 -0.0609658 -11.566 -0.42126 0.783711 -0.577215 0.232005 3.62155 -2.81727 -4.16897 
14601 2 -36.8145 1.72347 -11.6312 0.0489625 -0.499753 -0.770077 4.81568 -2.28042 0.273544 -4.08676 
2988 2 -36.7378 0.657315 -9.51258 0.0595277 -0.243819 0.635268 -5.14637 -4.13472 0.599437 -4.34875 
3000 1 -44.0988 2.87798 -10.0825 -0.106775 -0.3782 0.397812 2.69404 4.17899 1.44651 -3.3189 
2933 2 -40.4793 3.39341 -12.638 -0.596256 -0.321352 0.116858 -2.17057 -0.540653 -1.47818 -4.16689 
3074 2 -40.4801 6.07068 -12.0772 -0.673692 -1.03325 0.113344 3.10749 -1.2273 -6.72109 -4.28606 
2930 2 -42.2044 4.36237 -11.1925 0.946494 0.688678 -0.118385 -2.99006 4.80444 0.562657 -4.04293 
3045 2 -39.5829 4.12244 -10.6119 -0.0267688 0.210876 0.871584 -0.786243 8.44589 -0.0632311 -4.34068 
3432 2 -40.8111 6.13005 -9.79944 -2.04675 0.482824 0.0654011 -8.64369 3.03591 -4.58002 -4.14158 
5226 2 -38.6671 6.83786 -10.3997 0.023708 -1.22001 0.271501 4.60581 -0.934355 1.30024 -4.37098 
13927 2 -34.8916 6.5464 -13.1849 -0.592695 0.5151 -0.633808 -2.80534 -4.75281 6.79216 -4.36059 
2932 1 -37.3142 4.74296 -12.546 -0.679998 -0.953451 -0.0705714 -0.763917 -3.99115 -1.57375 -4.01758 
13103 2 -34.3751 4.28718 -12.6877 -0.0950117 -0.304755 0.470122 0.0159954 2.07365 -6.30952 -4.17447 
1128 2 -37.192 2.99514 -9.7257 -0.31629 0.42931 0.44395 0.723817 -3.41725 3.10633 -4.11822 
8921 2 -36.8989 5.28724 -9.44289 -0.153924 0.427544 -0.244619 1.37913 2.77984 -0.676665 -4.275 
3467 2 -34.7634 5.76897 -10.6685 -0.0211708 -0.404178 0.627034 1.6577 -5.20431 3.22232 -4.33042 
3088 1 -34.2781 2.91714 -10.0487 -0.207657 -0.151846 0.0508643 3.4388 3.01283 3.4164 -3.68847 
2936 1 -43.1692 7.6975 -11.2741 -0.638128 -0.648199 0.132111 -1.26071 -0.649941 0.619272 -3.32074 
3162 2 -41.5144 7.74407 -13.5051 1.40289 0.534846 0.0313433 -2.62199 3.79791 0.966218 -3.88608 
3022 2 -39.8028 9.77997 -13.1109 1.12129 -2.16849 -0.447726 7.44134 0.511433 9.09831 -4.21745 
2931 2 -38.777 7.55321 -12.608 -0.325825 0.358457 -1.31336 -3.26662 -3.81507 5.16492 -4.30935 
2866 2 -41.8757 10.0631 -12.1935 -1.00463 0.0193804 0.224383 1.5176 -3.41243 1.92412 -3.67012 
12874 2 -40.6184 8.46899 -11.126 1.64858 -1.76043 -0.105927 -2.96633 -2.27536 2.72777 -4.23651 
5363 2 -41.7037 9.84453 -9.63188 -0.308013 0.57014 0.231107 1.09859 4.25569 0.366261 -4.03805 
3127 2 -39.744 10.7424 -11.0255 -0.765859 0.808305 -0.293227 -5.66537 0.121705 2.9333 -3.98883 
8068 2 -38.3031 11.5971 -12.6166 0.879709 0.307949 -1.27838 -0.976589 3.80789 3.68901 -4.35901 
3027 2 -38.1353 9.05479 -10.8659 -1.26553 0.74154 0.213638 -2.38564 -0.328918 3.78922 -4.32671 
3344 2 -36.5317 7.24074 -11.4364 0.142049 -0.0199943 0.421552 -0.205151 -3.30893 2.74955 -4.40315 
14513 2 -35.9668 9.41457 -10.4584 2.26686 -1.50046 -0.0225004 -0.895417 -4.47687 3.43292 -4.01778 
14240 2 -34.1324 7.92813 -11.3845 -0.643629 0.00589213 0.680107 -7.77667 -3.18872 3.15558 -4.24944 