ITEM: TIMESTEP                                    
5000000                                           
ITEM: NUMBER OF ATOMS                             
       25756
ITEM: BOX BOUNDS pp pp pp                         
  -100.00000000000000        100.00000000000000     
  -100.00000000000000        100.00000000000000     
  -100.00000000000000        100.00000000000000     
ITEM: ATOMS id type x y z c_strOrder
      506   2   -34.74630000    -4.82676000   -28.14860000   -0.72
     1648   2   -34.76730000    -7.20343000    -0.18522000   -0.79
    12884   2   -35.68070000     0.19464800   -26.83060000    0.79
     2860   1   -34.40850000     1.00665000   -29.55110000    0.65
    13132   1   -36.00170000     5.09152000   -27.28660000    0.60
    13410   2   -33.61800000     6.83434000   -27.10840000   -0.87
    12932   1   -34.36770000     9.82372000   -27.10110000   -0.33
      444   1   -34.80300000   -14.81800000   -23.39510000    0.40
      446   2   -34.75710000   -11.50490000   -23.63270000    1.22
      632   1   -35.28580000    -7.96509000   -26.96160000   -0.17
      587   2   -36.35970000    -6.89991000   -24.19270000    0.02
      451   2   -34.72730000    -9.15472000   -24.50980000   -0.69
     7762   2   -33.78680000    -6.85307000   -24.45550000   -1.57
     7766   1   -34.17970000   -11.20720000   -26.51580000   -0.07
      497   1   -36.31910000    -2.49264000   -27.36230000   -0.14
     3248   2   -41.86370000    -4.47157000    -0.20621400   -1.20
     2841   1   -37.87910000    -4.03039000   -23.99170000   -0.25
      492   2   -35.13460000    -5.36553000   -23.02840000   -1.37
     8344   2   -35.29720000    -3.03429000   -24.07650000   -0.29
     8059   2   -35.28070000    -5.14606000   -25.43830000   -2.84
     2900   1   -39.07140000    -0.38500600   -23.32620000    1.35
     2850   2   -34.76220000     2.42505000   -26.98660000    0.29
     7796   2   -36.19680000    -0.84441000   -24.77060000   -0.61
    13359   2   -36.11720000     0.59284300   -22.90560000    0.57
    13651   2   -34.72720000     0.97704500   -24.80250000   -0.80
    13086   2   -34.18540000    -1.26718000   -25.55540000   -1.60
    13357   2   -34.28800000    -0.90017400   -23.26970000   -1.96
    13175   1   -37.34090000     2.18533000   -25.18450000    0.43
    12948   2   -36.44460000     5.03677000   -24.12620000   -0.04
      520   2   -36.15830000     3.07287000   -22.43120000   -1.57
    13466   2   -34.52220000     3.28591000   -24.76250000   -1.42
     3167   2   -34.41190000     4.86191000   -22.64290000   -2.61
     3031   2   -34.11430000     5.42192000   -24.82350000   -2.02
    13190   1   -37.97100000     7.54484000   -23.07830000    0.01
    13360   2   -35.39920000     7.32682000   -25.58780000    1.62
     3165   2   -35.27560000     9.57855000   -24.23810000    0.06
    13240   2   -34.94120000     7.20972000   -23.28060000    0.11
     8635   2   -33.75750000     1.12536000   -19.14450000    1.20
    18248   1   -35.97010000    25.71790000    -2.74009000    0.81
    12970   1   -37.16050000    12.07900000   -23.39270000    1.49
    13428   2   -36.52990000    14.71930000   -22.39700000   -0.41
    13459   2   -35.25550000    14.09390000   -24.52180000   -0.40
    14610   2   -34.12410000    15.80010000   -23.43520000    0.30
    13365   2   -34.44380000    11.75600000   -23.56130000   -0.73
    12878   2   -33.70440000    12.33500000   -25.85530000    0.26
    14366   1   -33.42580000    12.73580000   -14.33340000    1.70
      611   2   -34.37180000   -18.32920000   -19.65740000    0.79
      614   1   -36.04570000   -15.38080000   -19.65800000    1.19
     2962   2   -35.02360000   -12.00710000   -21.21310000    0.93
      521   2   -36.97490000   -11.79980000   -19.87470000    0.87
      485   2   -34.82910000   -12.67080000   -18.76350000   -1.55
     2851   1   -39.37170000    -7.74648000   -20.33410000    1.05
     2843   1   -36.80670000   -10.02970000   -22.67380000    0.10
     2974   2   -34.61420000    -7.57193000   -22.35910000   -0.12
      523   2   -36.02300000    -7.82519000   -20.16380000    0.97
      517   2   -37.40220000    -9.44646000   -19.08740000    1.08
     2845   2   -35.07510000   -10.09740000   -19.88240000   -1.76
    13005   1   -33.89800000    25.75760000   -14.68990000   -1.31
     2883   2   -39.43210000    -5.53280000   -18.44800000   -1.41
     2858   1   -40.51840000    -2.51135000   -18.68810000   -1.09
      527   2   -38.91200000    -4.51699000   -20.62270000    1.13
     2914   2   -38.42590000    -2.26722000   -20.83220000   -0.79
    13046   2   -36.96610000    -6.69643000   -21.90810000   -2.87
     2836   2   -36.42360000    -4.09264000   -21.34860000   -1.58
     2842   2   -34.73300000    -5.87796000   -20.63310000    0.47
     2877   2   -37.34740000    -5.89668000   -19.50560000   -1.34
     2899   2   -38.03120000    -3.41928000   -18.72490000   -1.01
     2846   2   -35.49950000    -4.36684000   -18.96600000    1.06
      416   2   -36.08450000    -2.17274000   -20.01690000   -2.45
     2905   2   -39.35440000     0.18244800   -20.58470000    0.89
    13044   2   -36.41980000    -1.85744000   -22.42540000   -1.73
    13405   2   -38.08850000     1.93464000   -21.57460000   -0.94
     2857   2   -37.06740000    -0.33855200   -20.77270000   -2.51
    13180   2   -35.75610000     1.53383000   -20.44850000   -1.82
    13134   2   -37.98650000    -0.80176200   -18.49690000    0.08
     2847   2   -35.69020000     0.12609600   -18.61280000   -1.76
     2855   2   -37.85350000     1.73090000   -19.15040000   -0.38
     2903   2   -34.54630000    -0.50047800   -20.87910000   -0.98
    14696   2   -34.40170000    20.72130000    -1.16085000   -3.27
    13407   2   -38.31110000     4.04881000   -22.41170000    0.13
     2863   1   -40.57600000     2.94282000   -19.78330000   -0.57
    13233   2   -38.45020000     5.77310000   -20.64710000   -2.15
    13929   2   -38.55550000     5.01738000   -18.40040000   -1.06
     2944   2   -36.34220000     5.63167000   -21.75950000   -1.03
    13458   2   -37.25650000     3.47442000   -20.21040000   -0.33
    12966   2   -36.30600000     5.66503000   -19.32070000    1.60
    13784   2   -34.72450000     3.77204000   -20.53640000    1.52
     2922   1   -33.78590000     6.81349000   -20.42990000    1.38
     2935   1   -40.51800000     6.74503000   -18.80600000    2.01
     3358   2   -39.06050000     8.51845000   -20.03680000   -0.28
    13254   1   -39.61240000    11.75510000   -19.54840000    1.56
    13978   2   -35.82270000     9.29107000   -21.90830000    1.61
     8312   2   -37.70750000    10.33470000   -21.09010000   -0.75
     5244   2   -36.73240000     7.75590000   -20.48150000    1.00
     3036   2   -35.14720000     9.87524000   -19.69680000   -4.84
     2859   2   -37.37560000     9.74868000   -18.66170000   -0.79
    18377   2   -37.74820000     7.21983000   -18.24140000   -2.99
    12930   2   -35.50280000     8.18155000   -18.18810000   -0.08
     3158   2   -38.35990000    14.47810000   -19.26550000    1.77
    13661   2   -37.53530000    13.19580000   -21.14570000    1.00
     2949   2   -34.50950000    13.62880000   -22.12970000   -0.35
     3454   2   -35.49310000    11.57960000   -21.42960000   -1.44
     3011   2   -35.65400000    14.07850000   -20.21840000   -0.25
    13878   2   -36.55420000    11.95700000   -19.38560000    1.56
    13504   2   -34.88160000    13.47440000   -17.92030000   -0.67
    14323   2   -36.59250000    15.46390000   -17.83000000    1.08
    13832   2   -34.24770000    15.89220000   -21.10710000    0.61
    13851   2   -34.02830000    11.91100000   -19.50980000    1.44
    13178   1   -36.53400000    17.06270000   -20.57600000    1.92
    18126   2   -35.19950000    19.75240000   -19.23320000   -1.50
    12980   2   -34.52680000    15.57200000   -18.69710000   -0.55
     5290   2   -37.33990000    22.10030000    -3.66808000    0.30
    13244   1   -34.18200000    21.75150000   -21.32920000   -1.40
      570   1   -35.24880000   -19.26530000   -16.94030000    0.20
      750   2   -34.15710000   -21.62150000   -14.81690000    0.73
    13420   2   -33.53520000    18.07660000   -18.78970000    1.98
      498   2   -35.20460000   -16.68740000   -16.92280000   -1.41
     2874   1   -38.04810000   -15.73240000   -15.64630000    1.14
      855   2   -35.70470000   -18.22730000   -13.96110000    1.51
      555   2   -35.22860000   -15.93020000   -14.70270000    0.38
     3163   1   -33.56340000    14.31800000    -4.04648000    2.62
     2981   1   -40.57430000   -12.75370000   -14.02860000   -0.28
      934   2   -38.57940000   -12.89570000   -15.84270000   -1.21
      788   2   -38.17040000   -11.20310000   -17.66150000   -1.50
      468   2   -36.90310000   -13.23970000   -17.36660000   -0.03
      907   2   -34.62820000   -14.39130000   -17.09580000   -0.89
    13314   2   -36.22290000   -13.75050000   -15.31750000   -3.05
      768   2   -37.65570000   -12.04610000   -13.73600000   -1.62
      793   2   -34.91390000   -11.78290000   -13.81480000    1.62
      637   2   -34.67860000   -12.21700000   -16.12890000   -1.89
      779   2   -36.76020000   -11.45950000   -15.64970000   -0.64
     2896   1   -40.12730000    -8.15578000   -16.92580000    1.46
     2964   2   -39.00160000   -10.68590000   -15.15660000   -0.56
     2954   1   -41.36980000    -9.46995000   -13.65700000    0.38
     2961   2   -38.59580000    -8.29748000   -14.67200000    2.04
      630   2   -40.54260000    -6.72046000   -13.88420000   -2.12
     2960   2   -35.87730000   -10.86380000   -17.80820000   -0.66
     2854   2   -37.73530000    -7.41853000   -17.72940000    1.67
      529   1   -34.33680000    -7.39744000   -17.89140000   -1.24
      526   2   -37.34010000    -9.31653000   -16.39930000   -1.50
     3093   2   -34.95510000    -9.59663000   -15.69890000   -2.22
      629   2   -34.16860000    -7.70146000   -14.78950000    0.28
      952   2   -36.46190000    -7.19361000   -15.58440000   -3.25
     2998   2   -40.87410000    -5.09401000   -16.28880000    0.08
     2965   2   -39.56090000    -4.69575000   -14.27010000   -1.00
     2907   2   -40.52460000    -2.72239000   -15.63190000   -1.53
     2897   2   -38.81580000    -3.76679000   -16.55080000    0.03
      773   2   -38.72930000    -6.16537000   -15.78870000   -1.16
     2917   2   -38.33890000    -2.66771000   -14.23440000    0.48
     2878   2   -38.00020000    -6.35940000   -13.46300000   -0.99
      528   2   -36.84260000    -5.31875000   -17.24670000   -0.38
     7964   2   -34.73240000    -5.38733000   -15.81620000   -0.62
     2852   2   -37.07740000    -4.65462000   -14.94340000   -0.59
     8056   2   -34.83720000    -3.77787000   -14.04890000    1.22
      530   1   -35.97140000    -2.47922000   -16.44170000    0.31
     2892   1   -42.70460000    -0.79824700   -14.37780000    0.36
    13649   2   -39.60820000     0.76836700   -17.96720000   -0.93
     2920   2   -38.85420000    -1.26287000   -16.43020000   -0.18
     2916   2   -41.31170000    -0.36302000   -16.44310000   -0.65
     2908   2   -40.00360000    -0.58182800   -14.08970000   -1.36
     3139   2   -41.03530000     1.44935000   -14.51620000   -1.70
     3004   2   -39.10070000     1.27672000   -15.69670000   -1.01
     2909   2   -40.97690000     2.30620000   -16.91480000   -0.37
     2934   2   -36.92720000     0.60305800   -16.73210000    0.46
     2995   2   -37.70920000    -0.01455570   -14.39680000    0.14
     3014   1   -35.81300000     2.05746000   -14.26840000    1.91
     3430   2   -34.75700000    10.85000000    -0.19783600    2.16
     1096   2   -33.38150000   -23.74800000    -6.61604000    0.59
     2867   2   -38.69410000     2.93603000   -17.36110000    0.37
     2911   2   -40.45430000     4.43143000   -16.57970000    0.84
     2940   1   -42.38310000     4.69538000   -14.49200000    0.32
     2865   2   -39.40990000     3.31837000   -14.70490000    1.60
     3330   2   -39.58600000     5.65350000   -14.19970000   -2.47
    13179   2   -38.78160000     6.07236000   -16.35440000   -1.51
     3015   1   -35.42340000     2.87101000   -17.43630000    4.02
    13877   2   -34.41070000     5.82925000   -17.34340000    0.25
     3142   2   -36.59420000     5.73108000   -16.96580000   -1.13
     2862   2   -37.53260000     4.18805000   -15.68520000   -1.57
    14179   2   -34.93410000     4.96940000   -15.11940000   -0.91
     3051   2   -37.45860000     6.92774000   -14.56150000    1.95
     2938   2   -39.48560000     8.90253000   -17.59910000    1.05
    13505   2   -41.21280000     6.99438000   -15.84130000    0.18
    13497   1   -41.10640000    10.51890000   -15.29580000   -1.13
     2928   2   -39.41490000     8.20291000   -14.96450000   -2.20
     2868   2   -38.42000000    10.37350000   -15.02800000    1.55
    14026   2   -38.67130000    11.26370000   -17.01970000   -0.08
     3032   1   -35.06350000    10.76760000   -16.60510000    0.77
    13549   2   -37.44450000     8.70776000   -16.30900000   -0.42
     3033   1   -36.52690000     9.31140000   -13.35150000    0.45
    14411   2   -35.06250000     7.60231000   -15.76270000    1.29
    13203   2   -39.56760000    13.46800000   -17.01340000    1.81
     2945   1   -40.41550000    15.37220000   -13.99870000    2.50
    18115   2   -39.42470000    12.67690000   -14.77050000    1.58
    13195   2   -37.73020000    13.93040000   -13.28300000   -2.17
     3372   2   -37.42690000    13.30090000   -17.55530000    2.13
    14267   2   -38.00920000    14.58280000   -15.46180000   -1.14
    18164   2   -35.72940000    14.10880000   -15.84050000   -0.14
    13136   2   -36.98700000    12.09490000   -15.24360000   -1.38
     3202   2   -35.46470000    15.02400000   -13.73860000   -0.46
     7758   2   -34.00080000    -9.97497000   -22.00320000   -0.17
     2872   1   -38.86370000    16.67140000   -16.86800000    3.70
     3029   2   -38.22670000    18.52470000   -14.15810000    2.69
    13739   2   -37.50570000    16.39630000   -13.40480000   -2.11
    13415   2   -35.42190000    17.53550000   -17.28690000   -1.50
    14695   2   -36.54360000    16.37080000   -15.45730000   -2.67
    13520   2   -36.16890000    18.86770000   -15.41520000   -0.81
     3316   2   -36.77940000    19.59720000   -17.59220000    3.46
    18691   2   -33.84620000    18.64720000    -0.39116500   -2.63
    13547   1   -35.08580000    22.53260000   -17.81520000    0.82
     5234   1   -37.28410000    21.56000000   -14.19900000    0.70
    18961   2   -35.06620000    22.83840000   -13.65840000    1.87
    18388   2   -34.91290000    20.99840000   -15.49010000    0.88
    18081   2   -33.88050000    23.17420000   -15.70430000    2.17
     2941   2   -33.77350000    20.06700000   -17.34560000    1.14
     3242   1   -42.64980000   -10.82690000    -0.30691500    0.69
      552   2   -34.48460000   -23.89590000   -11.33500000    0.53
     3096   1   -36.17620000   -21.27890000   -12.52400000    0.97
      571   2   -33.84850000   -24.03820000    -9.11469000   -0.76
      776   2   -35.87550000   -22.82550000    -9.78393000   -0.73
      878   2   -35.50250000   -20.41290000    -9.80004000   -1.18
      516   1   -38.23890000   -17.87220000   -11.74360000    1.01
     8588   2   -36.36370000   -16.18050000   -12.67150000   -2.45
     1277   2   -35.29340000   -18.78090000   -11.62470000   -0.86
      791   2   -36.61780000   -18.49430000    -9.54718000    1.05
      569   2   -35.50120000   -16.54580000   -10.47110000    1.85
    13042   2   -33.75270000   -11.39660000   -11.65070000    1.67
     3227   2   -38.74190000   -12.91600000   -11.75780000   -0.05
      924   2   -39.27400000   -14.99410000   -11.85030000    0.59
      766   1   -41.20490000   -12.94820000   -10.70120000    0.54
      627   2   -39.20050000   -11.42670000    -9.40969000   -0.56
     2955   2   -38.51780000   -13.71410000    -9.35649000    0.51
      902   2   -38.02230000   -14.40680000   -13.53380000    1.05
      765   2   -35.69190000   -14.01200000   -13.10890000    0.79
      778   2   -37.01370000   -14.56180000   -10.84950000   -0.80
      763   2   -34.53280000   -14.43700000   -11.27940000   -0.66
     2963   1   -36.36200000   -11.85200000   -10.97740000    3.47
     2876   1   -42.97030000    -7.68553000    -9.42050000    0.99
     2986   2   -39.18140000   -10.71760000   -12.55670000   -2.35
     3083   2   -39.42880000    -8.18371000   -12.56540000   -1.71
     2956   2   -41.73500000    -7.31480000   -11.88330000    0.62
     3211   2   -40.56620000    -9.92424000   -10.84270000    0.86
     3424   2   -40.01470000    -9.13408000    -8.63848000   -2.12
     3094   2   -40.26900000    -7.62781000   -10.31800000   -0.44
     3388   2   -38.26470000    -9.39781000   -10.73000000    1.10
     2969   2   -37.90420000    -7.49296000    -9.00454000   -1.35
      774   1   -36.71450000    -9.39963000   -12.98080000    2.12
      638   2   -36.08340000    -8.69499000    -9.96506000    0.09
     2891   2   -37.67440000    -6.93975000   -11.11350000   -0.53
     3455   2   -34.21370000    -7.48935000    -8.67443000   -0.85
     3787   2   -34.23090000    -8.89280000   -11.20680000    1.28
    18207   2   -36.65260000    20.83390000    -1.57673000   -0.49
     2927   2   -42.57260000    -3.54619000    -9.32839000    0.50
     2875   1   -42.23810000    -4.68796000   -13.19330000    0.07
     2894   2   -40.08190000    -2.63815000   -12.96970000   -0.75
     2895   2   -39.88020000    -5.75604000   -11.90460000    0.26
     3218   2   -40.14380000    -3.76544000   -10.65870000   -0.81
     2879   2   -41.57880000    -5.67574000   -10.18380000    0.82
     2976   2   -38.96890000    -5.46750000    -9.70117000   -1.75
     3115   2   -35.51790000    -6.07945000   -13.64710000   -0.58
     3612   2   -35.36060000    -6.74303000   -11.00940000    0.55
     2989   1   -37.33380000    -4.08682000   -11.71480000    2.30
     3215   2   -34.65290000    -4.54555000   -11.74040000   -1.48
     3043   2   -33.51300000    21.20100000   -13.15310000   -0.35
     3155   2   -42.88790000     0.35944600   -10.97680000    0.03
     3010   2   -42.55480000     1.99094000   -12.73280000    0.84
     3012   2   -38.90880000     1.51546000   -13.15240000   -0.59
     2968   2   -40.55980000    -2.02920000    -9.07767000   -2.73
     3106   2   -40.82650000     0.44454700   -12.12310000   -1.35
     3005   2   -41.69320000    -1.72393000   -11.15890000    1.11
     3272   2   -40.58700000     0.26012400    -9.51566000   -2.59
     3001   2   -39.02990000     1.67222000   -10.68670000   -0.38
     2918   1   -38.28020000    -1.13546000   -11.38020000    2.54
     3009   2   -41.37890000     2.16098000   -10.38460000    0.54
    13232   2   -36.20010000    -1.62403000   -13.47820000   -1.01
     5245   2   -35.16920000    -2.37160000   -11.26010000    2.29
    10642   2   -35.00480000    -0.06096580   -11.56600000   -0.41
    14601   2   -36.81450000     1.72347000   -11.63120000   -0.64
     2988   2   -36.73780000     0.65731500    -9.51258000   -0.14
     3000   1   -44.09880000     2.87798000   -10.08250000   -0.28
     2933   2   -40.47930000     3.39341000   -12.63800000   -1.23
     3074   2   -40.48010000     6.07068000   -12.07720000    1.23
     2930   2   -42.20440000     4.36237000   -11.19250000   -0.98
     3045   2   -39.58290000     4.12244000   -10.61190000    0.15
     3432   2   -40.81110000     6.13005000    -9.79944000   -2.46
     5226   2   -38.66710000     6.83786000   -10.39970000   -3.64
    13927   2   -34.89160000     6.54640000   -13.18490000    1.05
     2932   1   -37.31420000     4.74296000   -12.54600000    1.54
    13103   2   -34.37510000     4.28718000   -12.68770000   -0.58
     1128   2   -37.19200000     2.99514000    -9.72570000    1.77
     8921   2   -36.89890000     5.28724000    -9.44289000   -2.87
     3467   2   -34.76340000     5.76897000   -10.66850000    3.45
     3088   1   -34.27810000     2.91714000   -10.04870000    1.44
     2936   1   -43.16920000     7.69750000   -11.27410000    1.27
     3162   2   -41.51440000     7.74407000   -13.50510000   -1.62
     3022   2   -39.80280000     9.77997000   -13.11090000    0.40
     2931   2   -38.77700000     7.55321000   -12.60800000   -1.77
     2866   2   -41.87570000    10.06310000   -12.19350000   -1.91
    12874   2   -40.61840000     8.46899000   -11.12600000   -0.02
     5363   2   -41.70370000     9.84453000    -9.63188000    2.04
     3127   2   -39.74400000    10.74240000   -11.02550000   -3.01
     8068   2   -38.30310000    11.59710000   -12.61660000    0.58
     3027   2   -38.13530000     9.05479000   -10.86590000    1.07
     3344   2   -36.53170000     7.24074000   -11.43640000   -3.37
    14513   2   -35.96680000     9.41457000   -10.45840000   -0.78
    14240   2   -34.13240000     7.92813000   -11.38450000   -2.94
     2948   1   -42.17660000    12.77560000   -11.02410000    0.55
    14408   2   -40.62150000    11.93480000   -12.84680000    1.43
     3047   2   -39.37620000    13.52880000   -11.67690000    1.04
    18075   2   -39.83010000    12.93300000    -9.48904000    0.93
    13555   2   -39.94570000    15.22480000   -10.10900000   -0.17
    18069   2   -38.10210000    15.65300000   -11.60260000    1.31
     9069   2   -35.91390000    12.54120000   -13.23010000    0.16
     2947   2   -35.20370000    11.13870000   -11.44810000    1.44
     5239   1   -36.78440000    13.15750000   -10.47230000    1.85
    13241   2   -34.67300000    13.89030000   -11.63220000    0.77
     3183   2   -33.49200000    21.52650000    -5.33547000   -1.70
     3069   1   -39.91800000    17.71790000   -11.22190000    0.53
     3286   2   -38.11740000    16.25310000    -9.01923000    1.38
     2869   2   -35.41870000    19.84930000   -13.18340000    0.97
    14182   2   -35.34730000    17.61090000   -13.70140000   -0.31
    14070   2   -37.04280000    18.37770000   -12.14520000    0.21
    18289   2   -34.97830000    19.14080000   -11.01790000    0.16
    13828   1   -35.64410000    16.11970000   -10.52670000   -0.46
    14071   2   -37.24470000    18.45730000    -9.56083000   -0.69
    14424   2   -37.61170000    20.49330000   -11.32080000   -0.30
    18418   2   -34.83150000    20.92340000    -3.39298000    0.15
    18340   2   -33.67010000    19.10760000   -14.66760000   -0.03
    13183   2   -38.44930000    20.59320000    -9.03208000   -0.15
    15176   2   -33.74880000    23.12890000   -11.33000000    0.96
    13282   2   -35.60850000    21.70570000   -11.69360000    1.29
    18068   1   -37.30990000    23.25320000   -10.22770000   -1.14
    18204   2   -36.03180000    20.55820000    -9.56609000   -0.69
    18168   2   -34.89360000    22.62580000    -9.18537000    1.04
    18070   2   -34.77500000    24.92290000   -12.38050000    0.78
    18170   2   -34.70750000    24.89030000   -10.07710000    0.53
     1069   1   -33.75030000   -20.22840000    -0.41405500    1.76
     3468   2   -33.43840000    -8.41958000    -1.75017000    1.22
     1041   2   -36.91370000   -20.35870000    -7.86898000   -0.93
     1123   2   -34.22730000   -21.66540000    -8.06713000   -2.61
      692   1   -36.12410000   -23.58660000    -6.93597000    0.99
      935   2   -35.14070000   -20.68530000    -5.90125000   -3.01
     1006   2   -37.42910000   -20.61170000    -5.65685000   -0.03
      754   2   -39.93190000   -15.45550000    -9.35502000   -0.47
      894   1   -39.04330000   -18.05040000    -7.82668000    0.39
     3205   2   -38.11750000   -18.14620000    -5.08398000   -0.42
      777   2   -36.99110000   -16.22200000    -6.66789000   -0.69
     3070   1   -40.92990000   -16.01530000    -5.87540000   -0.92
       16   2   -37.52540000   -16.02710000    -8.80022000    0.89
      751   2   -35.38450000   -16.91270000    -8.29486000   -0.37
     1192   2   -34.56230000   -19.24390000    -7.85631000   -1.26
      903   2   -36.33360000   -18.44160000    -6.58397000   -0.03
      698   2   -34.32050000   -18.57590000    -5.51689000   -1.38
      926   2   -35.85330000   -16.93890000    -4.64544000   -2.72
     1200   2   -36.63810000   -13.96920000    -5.91833000    1.58
     3077   2   -40.22520000   -13.00330000    -7.53158000   -1.36
     2881   2   -38.81960000   -14.86300000    -7.05258000   -1.61
     3210   2   -38.95860000   -13.04640000    -5.55584000   -1.55
     3101   1   -41.93200000   -12.06540000    -5.11155000   -1.05
      904   2   -38.29430000   -15.64000000    -4.86967000    1.35
     3076   1   -35.27190000   -13.53320000    -8.61180000    3.06
     3255   2   -37.69930000   -12.41920000    -7.48763000    1.16
      941   2   -34.96640000   -13.82860000    -4.21926000   -0.58
    18253   2   -34.14540000    27.17340000    -4.73160000    0.76
     1285   2   -41.44680000   -10.89660000    -8.50888000    1.57
     2898   2   -42.25160000    -8.83458000    -4.67643000   -0.31
     3080   2   -40.19310000    -6.76536000    -8.03460000    1.00
      515   2   -41.53180000    -9.08631000    -6.87140000    0.67
     2979   2   -38.58470000    -8.55013000    -6.76286000    0.74
     2906   2   -39.45470000   -10.76580000    -6.81683000   -1.74
      761   2   -39.97630000    -9.53531000    -5.00213000    0.38
     3317   2   -38.26820000    -7.68721000    -4.55890000   -1.89
     3002   2   -40.49270000    -7.22962000    -5.64952000   -0.68
     8294   2   -37.62750000   -10.17100000    -8.50804000   -3.19
      789   2   -35.34060000   -10.25580000    -8.13971000    3.81
     3386   2   -36.38860000    -8.26045000    -7.42333000   -2.01
     3246   1   -36.63660000   -10.67360000    -4.93118000    1.77
     1086   2   -34.20240000    -8.59674000    -6.52086000   -2.40
     3627   2   -35.98240000    -7.68658000    -4.94941000    0.66
     3126   1   -43.23310000    -5.88809000    -6.84544000    1.76
     2915   2   -42.53040000    -4.00969000    -4.20683000    0.60
     2902   2   -42.20200000    -2.71068000    -6.97156000    0.36
     2975   2   -38.50640000    -3.22465000    -9.09995000   -0.47
     3168   2   -40.42660000    -4.39070000    -8.26523000   -3.38
     3417   2   -40.57540000    -4.23024000    -5.77272000   -1.81
     3097   2   -39.65900000    -2.44400000    -6.89294000   -0.10
     3006   1   -37.71910000    -5.21270000    -6.44965000    1.11
     2971   1   -35.84000000    -4.67708000    -8.86386000    1.49
    13921   2   -34.90170000    -2.13222000    -7.46248000   -2.40
     3026   2   -34.89630000    -6.15632000    -6.59251000   -0.31
     3072   2   -35.46740000    -3.60734000    -5.67982000    1.23
     3128   2   -37.21270000    -2.16777000    -6.44713000   -1.33
     2893   1   -43.80360000    -0.83495900    -8.82953000    0.67
     3020   1   -44.55500000    -1.93920000    -4.70912000   -0.39
     3339   2   -42.54770000    -0.21999300    -5.95069000    0.55
     3274   2   -44.47940000     0.69611900    -4.69948000   -0.18
    13931   2   -44.02850000     1.72426000    -6.85616000   -0.14
      460   2   -42.25250000     1.97245000    -4.97904000    1.17
     3041   2   -38.49090000    -0.69370700    -8.30777000   -0.39
     3104   2   -41.84180000     1.80785000    -7.89539000   -0.80
     3156   1   -39.17870000     2.55466000    -7.81876000    1.67
     3124   2   -40.69770000    -0.45995900    -7.31072000    0.14
      624   2   -41.50820000    -2.08510000    -4.94760000   -2.12
     3144   2   -40.74040000     0.25219800    -5.04882000   -0.13
    13311   2   -38.60230000     0.11906200    -6.12443000    0.55
     3281   2   -42.22670000     3.90081000    -6.51945000   -0.24
    18425   2   -35.06070000    22.93930000    -1.67804000   -0.94
     3600   2   -36.54220000    -1.72664000    -9.06928000    0.12
     3431   1   -33.59860000    -0.22051800    -9.03457000    2.43
     2980   2   -36.53210000    -0.22850700    -7.10432000   -1.68
    13750   2   -36.90820000     1.96931000    -5.65590000    0.62
     3794   2   -35.81710000     2.03028000    -7.70626000   -0.64
     2856   2   -34.81830000     0.84618200    -5.72188000   -3.00
     3052   2   -43.13480000     5.47002000    -9.04296000   -0.47
     3493   2   -43.62760000     6.08555000    -6.51704000    0.06
     3285   2   -44.33650000     3.94962000    -7.46806000    1.43
     3444   2   -39.21580000     5.41241000    -8.37809000   -1.06
     3050   2   -42.40070000     5.24809000    -4.61141000   -0.72
     2919   2   -41.42650000     4.01590000    -8.88365000   -1.02
    14980   2   -41.05510000     5.85777000    -7.04347000   -1.49
     3287   1   -39.69730000     3.59080000    -4.86055000    1.25
     3196   2   -40.36840000     6.61307000    -4.81857000   -1.72
    13506   2   -38.60690000     5.96601000    -6.13856000   -0.79
     3893   2   -36.91690000     4.35050000    -7.21607000    0.63
    13988   2   -36.89890000     4.03199000    -4.27253000   -0.62
     7936   2   -35.21520000     3.52762000    -5.80796000   -3.21
    13783   2   -34.70800000     5.17553000    -8.05263000    0.76
    13305   2   -33.58310000     0.15558900   -16.99370000   -0.16
     3044   1   -44.17740000     8.66455000    -6.96910000   -0.26
     3172   2   -42.46800000     9.17649000    -4.23703000   -2.12
    18119   2   -42.21980000     7.73931000    -8.53725000    1.26
    13503   2   -39.52760000    10.72820000    -8.91014000    1.46
     3188   1   -39.51460000     8.29878000    -7.97883000    0.35
     5271   2   -41.43220000    10.12970000    -6.35799000    0.80
     3065   2   -41.90980000     7.93707000    -6.04946000   -0.84
    13554   2   -39.99230000     8.84191000    -4.31864000    0.35
     3257   2   -38.90590000    10.22460000    -6.09818000    1.93
    14072   2   -37.95480000     8.08329000    -5.16023000   -0.52
    13607   2   -37.20200000    10.43970000    -8.93855000    1.79
     3024   1   -35.75100000     6.54801000    -5.21586000    0.55
     3182   1   -36.50730000     7.91717000    -8.29300000    0.26
     3003   2   -36.61300000    10.03940000    -6.64078000    2.15