ITEM: TIMESTEP                                    
0                                                 
ITEM: NUMBER OF ATOMS                             
         250
ITEM: BOX BOUNDS pp pp pp                         
   0.0000000000000000        14.315000000000000     
   0.0000000000000000        14.315000000000000     
   0.0000000000000000        14.315000000000000     
ITEM: ATOMS id type x y z c_strOrder c_bondOrder
        1   1     0.00000000     0.00000000     0.00000000   14.00    0.51
        2   1     0.00000000     0.00000000     2.86300000   14.00    0.51
        3   1     0.00000000     0.00000000     5.72600000   14.00    0.51
        4   1     0.00000000     0.00000000     8.58900000   14.00    0.51
        5   1     0.00000000     0.00000000    11.45200000   14.00    0.51
        6   1     0.00000000     2.86300000     0.00000000   14.00    0.51
        7   1     0.00000000     2.86300000     2.86300000   14.00    0.51
        8   1     0.00000000     2.86300000     5.72600000   14.00    0.51
        9   1     0.00000000     2.86300000     8.58900000   14.00    0.51
       10   1     0.00000000     2.86300000    11.45200000   14.00    0.51
       11   1     0.00000000     5.72600000     0.00000000   14.00    0.51
       12   1     0.00000000     5.72600000     2.86300000   14.00    0.51
       13   1     0.00000000     5.72600000     5.72600000   14.00    0.51
       14   1     0.00000000     5.72600000     8.58900000   14.00    0.51
       15   1     0.00000000     5.72600000    11.45200000   14.00    0.51
       16   1     0.00000000     8.58900000     0.00000000   14.00    0.51
       17   1     0.00000000     8.58900000     2.86300000   14.00    0.51
       18   1     0.00000000     8.58900000     5.72600000   14.00    0.51
       19   1     0.00000000     8.58900000     8.58900000   14.00    0.51
       20   1     0.00000000     8.58900000    11.45200000   14.00    0.51
       21   1     0.00000000    11.45200000     0.00000000   14.00    0.51
       22   1     0.00000000    11.45200000     2.86300000   14.00    0.51
       23   1     0.00000000    11.45200000     5.72600000   14.00    0.51
       24   1     0.00000000    11.45200000     8.58900000   14.00    0.51
       25   1     0.00000000    11.45200000    11.45200000   14.00    0.51
       26   1     2.86300000     0.00000000     0.00000000   14.00    0.51
       27   1     2.86300000     0.00000000     2.86300000   14.00    0.51
       28   1     2.86300000     0.00000000     5.72600000   14.00    0.51
       29   1     2.86300000     0.00000000     8.58900000   14.00    0.51
       30   1     2.86300000     0.00000000    11.45200000   14.00    0.51
       31   1     2.86300000     2.86300000     0.00000000   14.00    0.51
       32   1     2.86300000     2.86300000     2.86300000   14.00    0.51
       33   1     2.86300000     2.86300000     5.72600000   14.00    0.51
       34   1     2.86300000     2.86300000     8.58900000   14.00    0.51
       35   1     2.86300000     2.86300000    11.45200000   14.00    0.51
       36   1     2.86300000     5.72600000     0.00000000   14.00    0.51
       37   1     2.86300000     5.72600000     2.86300000   14.00    0.51
       38   1     2.86300000     5.72600000     5.72600000   14.00    0.51
       39   1     2.86300000     5.72600000     8.58900000   14.00    0.51
       40   1     2.86300000     5.72600000    11.45200000   14.00    0.51
       41   1     2.86300000     8.58900000     0.00000000   14.00    0.51
       42   1     2.86300000     8.58900000     2.86300000   14.00    0.51
       43   1     2.86300000     8.58900000     5.72600000   14.00    0.51
       44   1     2.86300000     8.58900000     8.58900000   14.00    0.51
       45   1     2.86300000     8.58900000    11.45200000   14.00    0.51
       46   1     2.86300000    11.45200000     0.00000000   14.00    0.51
       47   1     2.86300000    11.45200000     2.86300000   14.00    0.51
       48   1     2.86300000    11.45200000     5.72600000   14.00    0.51
       49   1     2.86300000    11.45200000     8.58900000   14.00    0.51
       50   1     2.86300000    11.45200000    11.45200000   14.00    0.51
       51   1     5.72600000     0.00000000     0.00000000   14.00    0.51
       52   1     5.72600000     0.00000000     2.86300000   14.00    0.51
       53   1     5.72600000     0.00000000     5.72600000   14.00    0.51
       54   1     5.72600000     0.00000000     8.58900000   14.00    0.51
       55   1     5.72600000     0.00000000    11.45200000   14.00    0.51
       56   1     5.72600000     2.86300000     0.00000000   14.00    0.51
       57   1     5.72600000     2.86300000     2.86300000   14.00    0.51
       58   1     5.72600000     2.86300000     5.72600000   14.00    0.51
       59   1     5.72600000     2.86300000     8.58900000   14.00    0.51
       60   1     5.72600000     2.86300000    11.45200000   14.00    0.51
       61   1     5.72600000     5.72600000     0.00000000   14.00    0.51
       62   1     5.72600000     5.72600000     2.86300000   14.00    0.51
       63   1     5.72600000     5.72600000     5.72600000   14.00    0.51
       64   1     5.72600000     5.72600000     8.58900000   14.00    0.51
       65   1     5.72600000     5.72600000    11.45200000   14.00    0.51
       66   1     5.72600000     8.58900000     0.00000000   14.00    0.51
       67   1     5.72600000     8.58900000     2.86300000   14.00    0.51
       68   1     5.72600000     8.58900000     5.72600000   14.00    0.51
       69   1     5.72600000     8.58900000     8.58900000   14.00    0.51
       70   1     5.72600000     8.58900000    11.45200000   14.00    0.51
       71   1     5.72600000    11.45200000     0.00000000   14.00    0.51
       72   1     5.72600000    11.45200000     2.86300000   14.00    0.51
       73   1     5.72600000    11.45200000     5.72600000   14.00    0.51
       74   1     5.72600000    11.45200000     8.58900000   14.00    0.51
       75   1     5.72600000    11.45200000    11.45200000   14.00    0.51
       76   1     8.58900000     0.00000000     0.00000000   14.00    0.51
       77   1     8.58900000     0.00000000     2.86300000   14.00    0.51
       78   1     8.58900000     0.00000000     5.72600000   14.00    0.51
       79   1     8.58900000     0.00000000     8.58900000   14.00    0.51
       80   1     8.58900000     0.00000000    11.45200000   14.00    0.51
       81   1     8.58900000     2.86300000     0.00000000   14.00    0.51
       82   1     8.58900000     2.86300000     2.86300000   14.00    0.51
       83   1     8.58900000     2.86300000     5.72600000   14.00    0.51
       84   1     8.58900000     2.86300000     8.58900000   14.00    0.51
       85   1     8.58900000     2.86300000    11.45200000   14.00    0.51
       86   1     8.58900000     5.72600000     0.00000000   14.00    0.51
       87   1     8.58900000     5.72600000     2.86300000   14.00    0.51
       88   1     8.58900000     5.72600000     5.72600000   14.00    0.51
       89   1     8.58900000     5.72600000     8.58900000   14.00    0.51
       90   1     8.58900000     5.72600000    11.45200000   14.00    0.51
       91   1     8.58900000     8.58900000     0.00000000   14.00    0.51
       92   1     8.58900000     8.58900000     2.86300000   14.00    0.51
       93   1     8.58900000     8.58900000     5.72600000   14.00    0.51
       94   1     8.58900000     8.58900000     8.58900000   14.00    0.51
       95   1     8.58900000     8.58900000    11.45200000   14.00    0.51
       96   1     8.58900000    11.45200000     0.00000000   14.00    0.51
       97   1     8.58900000    11.45200000     2.86300000   14.00    0.51
       98   1     8.58900000    11.45200000     5.72600000   14.00    0.51
       99   1     8.58900000    11.45200000     8.58900000   14.00    0.51
      100   1     8.58900000    11.45200000    11.45200000   14.00    0.51
      101   1    11.45200000     0.00000000     0.00000000   14.00    0.51
      102   1    11.45200000     0.00000000     2.86300000   14.00    0.51
      103   1    11.45200000     0.00000000     5.72600000   14.00    0.51
      104   1    11.45200000     0.00000000     8.58900000   14.00    0.51
      105   1    11.45200000     0.00000000    11.45200000   14.00    0.51
      106   1    11.45200000     2.86300000     0.00000000   14.00    0.51
      107   1    11.45200000     2.86300000     2.86300000   14.00    0.51
      108   1    11.45200000     2.86300000     5.72600000   14.00    0.51
      109   1    11.45200000     2.86300000     8.58900000   14.00    0.51
      110   1    11.45200000     2.86300000    11.45200000   14.00    0.51
      111   1    11.45200000     5.72600000     0.00000000   14.00    0.51
      112   1    11.45200000     5.72600000     2.86300000   14.00    0.51
      113   1    11.45200000     5.72600000     5.72600000   14.00    0.51
      114   1    11.45200000     5.72600000     8.58900000   14.00    0.51
      115   1    11.45200000     5.72600000    11.45200000   14.00    0.51
      116   1    11.45200000     8.58900000     0.00000000   14.00    0.51
      117   1    11.45200000     8.58900000     2.86300000   14.00    0.51
      118   1    11.45200000     8.58900000     5.72600000   14.00    0.51
      119   1    11.45200000     8.58900000     8.58900000   14.00    0.51
      120   1    11.45200000     8.58900000    11.45200000   14.00    0.51
      121   1    11.45200000    11.45200000     0.00000000   14.00    0.51
      122   1    11.45200000    11.45200000     2.86300000   14.00    0.51
      123   1    11.45200000    11.45200000     5.72600000   14.00    0.51
      124   1    11.45200000    11.45200000     8.58900000   14.00    0.51
      125   1    11.45200000    11.45200000    11.45200000   14.00    0.51
      126   1     1.43150000     1.43150000     1.43150000   14.00    0.51
      127   1     1.43150000     1.43150000     4.29450000   14.00    0.51
      128   1     1.43150000     1.43150000     7.15750000   14.00    0.51
      129   1     1.43150000     1.43150000    10.02050000   14.00    0.51
      130   1     1.43150000     1.43150000    12.88350000   14.00    0.51
      131   1     1.43150000     4.29450000     1.43150000   14.00    0.51
      132   1     1.43150000     4.29450000     4.29450000   14.00    0.51
      133   1     1.43150000     4.29450000     7.15750000   14.00    0.51
      134   1     1.43150000     4.29450000    10.02050000   14.00    0.51
      135   1     1.43150000     4.29450000    12.88350000   14.00    0.51
      136   1     1.43150000     7.15750000     1.43150000   14.00    0.51
      137   1     1.43150000     7.15750000     4.29450000   14.00    0.51
      138   1     1.43150000     7.15750000     7.15750000   14.00    0.51
      139   1     1.43150000     7.15750000    10.02050000   14.00    0.51
      140   1     1.43150000     7.15750000    12.88350000   14.00    0.51
      141   1     1.43150000    10.02050000     1.43150000   14.00    0.51
      142   1     1.43150000    10.02050000     4.29450000   14.00    0.51
      143   1     1.43150000    10.02050000     7.15750000   14.00    0.51
      144   1     1.43150000    10.02050000    10.02050000   14.00    0.51
      145   1     1.43150000    10.02050000    12.88350000   14.00    0.51
      146   1     1.43150000    12.88350000     1.43150000   14.00    0.51
      147   1     1.43150000    12.88350000     4.29450000   14.00    0.51
      148   1     1.43150000    12.88350000     7.15750000   14.00    0.51
      149   1     1.43150000    12.88350000    10.02050000   14.00    0.51
      150   1     1.43150000    12.88350000    12.88350000   14.00    0.51
      151   1     4.29450000     1.43150000     1.43150000   14.00    0.51
      152   1     4.29450000     1.43150000     4.29450000   14.00    0.51
      153   1     4.29450000     1.43150000     7.15750000   14.00    0.51
      154   1     4.29450000     1.43150000    10.02050000   14.00    0.51
      155   1     4.29450000     1.43150000    12.88350000   14.00    0.51
      156   1     4.29450000     4.29450000     1.43150000   14.00    0.51
      157   1     4.29450000     4.29450000     4.29450000   14.00    0.51
      158   1     4.29450000     4.29450000     7.15750000   14.00    0.51
      159   1     4.29450000     4.29450000    10.02050000   14.00    0.51
      160   1     4.29450000     4.29450000    12.88350000   14.00    0.51
      161   1     4.29450000     7.15750000     1.43150000   14.00    0.51
      162   1     4.29450000     7.15750000     4.29450000   14.00    0.51
      163   1     4.29450000     7.15750000     7.15750000   14.00    0.51
      164   1     4.29450000     7.15750000    10.02050000   14.00    0.51
      165   1     4.29450000     7.15750000    12.88350000   14.00    0.51
      166   1     4.29450000    10.02050000     1.43150000   14.00    0.51
      167   1     4.29450000    10.02050000     4.29450000   14.00    0.51
      168   1     4.29450000    10.02050000     7.15750000   14.00    0.51
      169   1     4.29450000    10.02050000    10.02050000   14.00    0.51
      170   1     4.29450000    10.02050000    12.88350000   14.00    0.51
      171   1     4.29450000    12.88350000     1.43150000   14.00    0.51
      172   1     4.29450000    12.88350000     4.29450000   14.00    0.51
      173   1     4.29450000    12.88350000     7.15750000   14.00    0.51
      174   1     4.29450000    12.88350000    10.02050000   14.00    0.51
      175   1     4.29450000    12.88350000    12.88350000   14.00    0.51
      176   1     7.15750000     1.43150000     1.43150000   14.00    0.51
      177   1     7.15750000     1.43150000     4.29450000   14.00    0.51
      178   1     7.15750000     1.43150000     7.15750000   14.00    0.51
      179   1     7.15750000     1.43150000    10.02050000   14.00    0.51
      180   1     7.15750000     1.43150000    12.88350000   14.00    0.51
      181   1     7.15750000     4.29450000     1.43150000   14.00    0.51
      182   1     7.15750000     4.29450000     4.29450000   14.00    0.51
      183   1     7.15750000     4.29450000     7.15750000   14.00    0.51
      184   1     7.15750000     4.29450000    10.02050000   14.00    0.51
      185   1     7.15750000     4.29450000    12.88350000   14.00    0.51
      186   1     7.15750000     7.15750000     1.43150000   14.00    0.51
      187   1     7.15750000     7.15750000     4.29450000   14.00    0.51
      188   1     7.15750000     7.15750000     7.15750000   14.00    0.51
      189   1     7.15750000     7.15750000    10.02050000   14.00    0.51
      190   1     7.15750000     7.15750000    12.88350000   14.00    0.51
      191   1     7.15750000    10.02050000     1.43150000   14.00    0.51
      192   1     7.15750000    10.02050000     4.29450000   14.00    0.51
      193   1     7.15750000    10.02050000     7.15750000   14.00    0.51
      194   1     7.15750000    10.02050000    10.02050000   14.00    0.51
      195   1     7.15750000    10.02050000    12.88350000   14.00    0.51
      196   1     7.15750000    12.88350000     1.43150000   14.00    0.51
      197   1     7.15750000    12.88350000     4.29450000   14.00    0.51
      198   1     7.15750000    12.88350000     7.15750000   14.00    0.51
      199   1     7.15750000    12.88350000    10.02050000   14.00    0.51
      200   1     7.15750000    12.88350000    12.88350000   14.00    0.51
      201   1    10.02050000     1.43150000     1.43150000   14.00    0.51
      202   1    10.02050000     1.43150000     4.29450000   14.00    0.51
      203   1    10.02050000     1.43150000     7.15750000   14.00    0.51
      204   1    10.02050000     1.43150000    10.02050000   14.00    0.51
      205   1    10.02050000     1.43150000    12.88350000   14.00    0.51
      206   1    10.02050000     4.29450000     1.43150000   14.00    0.51
      207   1    10.02050000     4.29450000     4.29450000   14.00    0.51
      208   1    10.02050000     4.29450000     7.15750000   14.00    0.51
      209   1    10.02050000     4.29450000    10.02050000   14.00    0.51
      210   1    10.02050000     4.29450000    12.88350000   14.00    0.51
      211   1    10.02050000     7.15750000     1.43150000   14.00    0.51
      212   1    10.02050000     7.15750000     4.29450000   14.00    0.51
      213   1    10.02050000     7.15750000     7.15750000   14.00    0.51
      214   1    10.02050000     7.15750000    10.02050000   14.00    0.51
      215   1    10.02050000     7.15750000    12.88350000   14.00    0.51
      216   1    10.02050000    10.02050000     1.43150000   14.00    0.51
      217   1    10.02050000    10.02050000     4.29450000   14.00    0.51
      218   1    10.02050000    10.02050000     7.15750000   14.00    0.51
      219   1    10.02050000    10.02050000    10.02050000   14.00    0.51
      220   1    10.02050000    10.02050000    12.88350000   14.00    0.51
      221   1    10.02050000    12.88350000     1.43150000   14.00    0.51
      222   1    10.02050000    12.88350000     4.29450000   14.00    0.51
      223   1    10.02050000    12.88350000     7.15750000   14.00    0.51
      224   1    10.02050000    12.88350000    10.02050000   14.00    0.51
      225   1    10.02050000    12.88350000    12.88350000   14.00    0.51
      226   1    12.88350000     1.43150000     1.43150000   14.00    0.51
      227   1    12.88350000     1.43150000     4.29450000   14.00    0.51
      228   1    12.88350000     1.43150000     7.15750000   14.00    0.51
      229   1    12.88350000     1.43150000    10.02050000   14.00    0.51
      230   1    12.88350000     1.43150000    12.88350000   14.00    0.51
      231   1    12.88350000     4.29450000     1.43150000   14.00    0.51
      232   1    12.88350000     4.29450000     4.29450000   14.00    0.51
      233   1    12.88350000     4.29450000     7.15750000   14.00    0.51
      234   1    12.88350000     4.29450000    10.02050000   14.00    0.51
      235   1    12.88350000     4.29450000    12.88350000   14.00    0.51
      236   1    12.88350000     7.15750000     1.43150000   14.00    0.51
      237   1    12.88350000     7.15750000     4.29450000   14.00    0.51
      238   1    12.88350000     7.15750000     7.15750000   14.00    0.51
      239   1    12.88350000     7.15750000    10.02050000   14.00    0.51
      240   1    12.88350000     7.15750000    12.88350000   14.00    0.51
      241   1    12.88350000    10.02050000     1.43150000   14.00    0.51
      242   1    12.88350000    10.02050000     4.29450000   14.00    0.51
      243   1    12.88350000    10.02050000     7.15750000   14.00    0.51
      244   1    12.88350000    10.02050000    10.02050000   14.00    0.51
      245   1    12.88350000    10.02050000    12.88350000   14.00    0.51
      246   1    12.88350000    12.88350000     1.43150000   14.00    0.51
      247   1    12.88350000    12.88350000     4.29450000   14.00    0.51
      248   1    12.88350000    12.88350000     7.15750000   14.00    0.51
      249   1    12.88350000    12.88350000    10.02050000   14.00    0.51
      250   1    12.88350000    12.88350000    12.88350000   14.00    0.51
ITEM: TIMESTEP                                    
0                                                 
ITEM: NUMBER OF ATOMS                             
         250
ITEM: BOX BOUNDS pp pp pp                         
   0.0000000000000000        14.315000000000000     
   0.0000000000000000        14.315000000000000     
   0.0000000000000000        14.315000000000000     
ITEM: ATOMS id type x y z c_strOrder c_bondOrder
        1   1     0.00000000     0.00000000     0.00000000   14.00    0.51
        2   1     0.00000000     0.00000000     2.86300000   14.00    0.51
        3   1     0.00000000     0.00000000     5.72600000   14.00    0.51
        4   1     0.00000000     0.00000000     8.58900000   14.00    0.51
        5   1     0.00000000     0.00000000    11.45200000   14.00    0.51
        6   1     0.00000000     2.86300000     0.00000000   14.00    0.51
        7   1     0.00000000     2.86300000     2.86300000   14.00    0.51
        8   1     0.00000000     2.86300000     5.72600000   14.00    0.51
        9   1     0.00000000     2.86300000     8.58900000   14.00    0.51
       10   1     0.00000000     2.86300000    11.45200000   14.00    0.51
       11   1     0.00000000     5.72600000     0.00000000   14.00    0.51
       12   1     0.00000000     5.72600000     2.86300000   14.00    0.51
       13   1     0.00000000     5.72600000     5.72600000   14.00    0.51
       14   1     0.00000000     5.72600000     8.58900000   14.00    0.51
       15   1     0.00000000     5.72600000    11.45200000   14.00    0.51
       16   1     0.00000000     8.58900000     0.00000000   14.00    0.51
       17   1     0.00000000     8.58900000     2.86300000   14.00    0.51
       18   1     0.00000000     8.58900000     5.72600000   14.00    0.51
       19   1     0.00000000     8.58900000     8.58900000   14.00    0.51
       20   1     0.00000000     8.58900000    11.45200000   14.00    0.51
       21   1     0.00000000    11.45200000     0.00000000   14.00    0.51
       22   1     0.00000000    11.45200000     2.86300000   14.00    0.51
       23   1     0.00000000    11.45200000     5.72600000   14.00    0.51
       24   1     0.00000000    11.45200000     8.58900000   14.00    0.51
       25   1     0.00000000    11.45200000    11.45200000   14.00    0.51
       26   1     2.86300000     0.00000000     0.00000000   14.00    0.51
       27   1     2.86300000     0.00000000     2.86300000   14.00    0.51
       28   1     2.86300000     0.00000000     5.72600000   14.00    0.51
       29   1     2.86300000     0.00000000     8.58900000   14.00    0.51
       30   1     2.86300000     0.00000000    11.45200000   14.00    0.51
       31   1     2.86300000     2.86300000     0.00000000   14.00    0.51
       32   1     2.86300000     2.86300000     2.86300000   14.00    0.51
       33   1     2.86300000     2.86300000     5.72600000   14.00    0.51
       34   1     2.86300000     2.86300000     8.58900000   14.00    0.51
       35   1     2.86300000     2.86300000    11.45200000   14.00    0.51
       36   1     2.86300000     5.72600000     0.00000000   14.00    0.51
       37   1     2.86300000     5.72600000     2.86300000   14.00    0.51
       38   1     2.86300000     5.72600000     5.72600000   14.00    0.51
       39   1     2.86300000     5.72600000     8.58900000   14.00    0.51
       40   1     2.86300000     5.72600000    11.45200000   14.00    0.51
       41   1     2.86300000     8.58900000     0.00000000   14.00    0.51
       42   1     2.86300000     8.58900000     2.86300000   14.00    0.51
       43   1     2.86300000     8.58900000     5.72600000   14.00    0.51
       44   1     2.86300000     8.58900000     8.58900000   14.00    0.51
       45   1     2.86300000     8.58900000    11.45200000   14.00    0.51
       46   1     2.86300000    11.45200000     0.00000000   14.00    0.51
       47   1     2.86300000    11.45200000     2.86300000   14.00    0.51
       48   1     2.86300000    11.45200000     5.72600000   14.00    0.51
       49   1     2.86300000    11.45200000     8.58900000   14.00    0.51
       50   1     2.86300000    11.45200000    11.45200000   14.00    0.51
       51   1     5.72600000     0.00000000     0.00000000   14.00    0.51
       52   1     5.72600000     0.00000000     2.86300000   14.00    0.51
       53   1     5.72600000     0.00000000     5.72600000   14.00    0.51
       54   1     5.72600000     0.00000000     8.58900000   14.00    0.51
       55   1     5.72600000     0.00000000    11.45200000   14.00    0.51
       56   1     5.72600000     2.86300000     0.00000000   14.00    0.51
       57   1     5.72600000     2.86300000     2.86300000   14.00    0.51
       58   1     5.72600000     2.86300000     5.72600000   14.00    0.51
       59   1     5.72600000     2.86300000     8.58900000   14.00    0.51
       60   1     5.72600000     2.86300000    11.45200000   14.00    0.51
       61   1     5.72600000     5.72600000     0.00000000   14.00    0.51
       62   1     5.72600000     5.72600000     2.86300000   14.00    0.51
       63   1     5.72600000     5.72600000     5.72600000   14.00    0.51
       64   1     5.72600000     5.72600000     8.58900000   14.00    0.51
       65   1     5.72600000     5.72600000    11.45200000   14.00    0.51
       66   1     5.72600000     8.58900000     0.00000000   14.00    0.51
       67   1     5.72600000     8.58900000     2.86300000   14.00    0.51
       68   1     5.72600000     8.58900000     5.72600000   14.00    0.51
       69   1     5.72600000     8.58900000     8.58900000   14.00    0.51
       70   1     5.72600000     8.58900000    11.45200000   14.00    0.51
       71   1     5.72600000    11.45200000     0.00000000   14.00    0.51
       72   1     5.72600000    11.45200000     2.86300000   14.00    0.51
       73   1     5.72600000    11.45200000     5.72600000   14.00    0.51
       74   1     5.72600000    11.45200000     8.58900000   14.00    0.51
       75   1     5.72600000    11.45200000    11.45200000   14.00    0.51
       76   1     8.58900000     0.00000000     0.00000000   14.00    0.51
       77   1     8.58900000     0.00000000     2.86300000   14.00    0.51
       78   1     8.58900000     0.00000000     5.72600000   14.00    0.51
       79   1     8.58900000     0.00000000     8.58900000   14.00    0.51
       80   1     8.58900000     0.00000000    11.45200000   14.00    0.51
       81   1     8.58900000     2.86300000     0.00000000   14.00    0.51
       82   1     8.58900000     2.86300000     2.86300000   14.00    0.51
       83   1     8.58900000     2.86300000     5.72600000   14.00    0.51
       84   1     8.58900000     2.86300000     8.58900000   14.00    0.51
       85   1     8.58900000     2.86300000    11.45200000   14.00    0.51
       86   1     8.58900000     5.72600000     0.00000000   14.00    0.51
       87   1     8.58900000     5.72600000     2.86300000   14.00    0.51
       88   1     8.58900000     5.72600000     5.72600000   14.00    0.51
       89   1     8.58900000     5.72600000     8.58900000   14.00    0.51
       90   1     8.58900000     5.72600000    11.45200000   14.00    0.51
       91   1     8.58900000     8.58900000     0.00000000   14.00    0.51
       92   1     8.58900000     8.58900000     2.86300000   14.00    0.51
       93   1     8.58900000     8.58900000     5.72600000   14.00    0.51
       94   1     8.58900000     8.58900000     8.58900000   14.00    0.51
       95   1     8.58900000     8.58900000    11.45200000   14.00    0.51
       96   1     8.58900000    11.45200000     0.00000000   14.00    0.51
       97   1     8.58900000    11.45200000     2.86300000   14.00    0.51
       98   1     8.58900000    11.45200000     5.72600000   14.00    0.51
       99   1     8.58900000    11.45200000     8.58900000   14.00    0.51
      100   1     8.58900000    11.45200000    11.45200000   14.00    0.51
      101   1    11.45200000     0.00000000     0.00000000   14.00    0.51
      102   1    11.45200000     0.00000000     2.86300000   14.00    0.51
      103   1    11.45200000     0.00000000     5.72600000   14.00    0.51
      104   1    11.45200000     0.00000000     8.58900000   14.00    0.51
      105   1    11.45200000     0.00000000    11.45200000   14.00    0.51
      106   1    11.45200000     2.86300000     0.00000000   14.00    0.51
      107   1    11.45200000     2.86300000     2.86300000   14.00    0.51
      108   1    11.45200000     2.86300000     5.72600000   14.00    0.51
      109   1    11.45200000     2.86300000     8.58900000   14.00    0.51
      110   1    11.45200000     2.86300000    11.45200000   14.00    0.51
      111   1    11.45200000     5.72600000     0.00000000   14.00    0.51
      112   1    11.45200000     5.72600000     2.86300000   14.00    0.51
      113   1    11.45200000     5.72600000     5.72600000   14.00    0.51
      114   1    11.45200000     5.72600000     8.58900000   14.00    0.51
      115   1    11.45200000     5.72600000    11.45200000   14.00    0.51
      116   1    11.45200000     8.58900000     0.00000000   14.00    0.51
      117   1    11.45200000     8.58900000     2.86300000   14.00    0.51
      118   1    11.45200000     8.58900000     5.72600000   14.00    0.51
      119   1    11.45200000     8.58900000     8.58900000   14.00    0.51
      120   1    11.45200000     8.58900000    11.45200000   14.00    0.51
      121   1    11.45200000    11.45200000     0.00000000   14.00    0.51
      122   1    11.45200000    11.45200000     2.86300000   14.00    0.51
      123   1    11.45200000    11.45200000     5.72600000   14.00    0.51
      124   1    11.45200000    11.45200000     8.58900000   14.00    0.51
      125   1    11.45200000    11.45200000    11.45200000   14.00    0.51
      126   1     1.43150000     1.43150000     1.43150000   14.00    0.51
      127   1     1.43150000     1.43150000     4.29450000   14.00    0.51
      128   1     1.43150000     1.43150000     7.15750000   14.00    0.51
      129   1     1.43150000     1.43150000    10.02050000   14.00    0.51
      130   1     1.43150000     1.43150000    12.88350000   14.00    0.51
      131   1     1.43150000     4.29450000     1.43150000   14.00    0.51
      132   1     1.43150000     4.29450000     4.29450000   14.00    0.51
      133   1     1.43150000     4.29450000     7.15750000   14.00    0.51
      134   1     1.43150000     4.29450000    10.02050000   14.00    0.51
      135   1     1.43150000     4.29450000    12.88350000   14.00    0.51
      136   1     1.43150000     7.15750000     1.43150000   14.00    0.51
      137   1     1.43150000     7.15750000     4.29450000   14.00    0.51
      138   1     1.43150000     7.15750000     7.15750000   14.00    0.51