ITEM: TIMESTEP
0
ITEM: NUMBER OF ATOMS
250
ITEM: BOX BOUNDS pp pp pp
0.0 14.315
0.0 14.315
0.0 14.315
ITEM: ATOMS id type x y z
1 1 0.0 0.0 0.0
2 1 0.0 0.0 2.863
3 1 0.0 0.0 5.726
4 1 0.0 0.0 8.589
5 1 0.0 0.0 11.452
6 1 0.0 2.863 0.0
7 1 0.0 2.863 2.863
8 1 0.0 2.863 5.726
9 1 0.0 2.863 8.589
10 1 0.0 2.863 11.452
11 1 0.0 5.726 0.0
12 1 0.0 5.726 2.863
13 1 0.0 5.726 5.726
14 1 0.0 5.726 8.589
15 1 0.0 5.726 11.452
16 1 0.0 8.589 0.0
17 1 0.0 8.589 2.863
18 1 0.0 8.589 5.726
19 1 0.0 8.589 8.589
20 1 0.0 8.589 11.452
21 1 0.0 11.452 0.0
22 1 0.0 11.452 2.863
23 1 0.0 11.452 5.726
24 1 0.0 11.452 8.589
25 1 0.0 11.452 11.452
26 1 2.863 0.0 0.0
27 1 2.863 0.0 2.863
28 1 2.863 0.0 5.726
29 1 2.863 0.0 8.589
30 1 2.863 0.0 11.452
31 1 2.863 2.863 0.0
32 1 2.863 2.863 2.863
33 1 2.863 2.863 5.726
34 1 2.863 2.863 8.589
35 1 2.863 2.863 11.452
36 1 2.863 5.726 0.0
37 1 2.863 5.726 2.863
38 1 2.863 5.726 5.726
39 1 2.863 5.726 8.589
40 1 2.863 5.726 11.452
41 1 2.863 8.589 0.0
42 1 2.863 8.589 2.863
43 1 2.863 8.589 5.726
44 1 2.863 8.589 8.589
45 1 2.863 8.589 11.452
46 1 2.863 11.452 0.0
47 1 2.863 11.452 2.863
48 1 2.863 11.452 5.726
49 1 2.863 11.452 8.589
50 1 2.863 11.452 11.452
51 1 5.726 0.0 0.0
52 1 5.726 0.0 2.863
53 1 5.726 0.0 5.726
54 1 5.726 0.0 8.589
55 1 5.726 0.0 11.452
56 1 5.726 2.863 0.0
57 1 5.726 2.863 2.863
58 1 5.726 2.863 5.726
59 1 5.726 2.863 8.589
60 1 5.726 2.863 11.452
61 1 5.726 5.726 0.0
62 1 5.726 5.726 2.863
63 1 5.726 5.726 5.726
64 1 5.726 5.726 8.589
65 1 5.726 5.726 11.452
66 1 5.726 8.589 0.0
67 1 5.726 8.589 2.863
68 1 5.726 8.589 5.726
69 1 5.726 8.589 8.589
70 1 5.726 8.589 11.452
71 1 5.726 11.452 0.0
72 1 5.726 11.452 2.863
73 1 5.726 11.452 5.726
74 1 5.726 11.452 8.589
75 1 5.726 11.452 11.452
76 1 8.589 0.0 0.0
77 1 8.589 0.0 2.863
78 1 8.589 0.0 5.726
79 1 8.589 0.0 8.589
80 1 8.589 0.0 11.452
81 1 8.589 2.863 0.0
82 1 8.589 2.863 2.863
83 1 8.589 2.863 5.726
84 1 8.589 2.863 8.589
85 1 8.589 2.863 11.452
86 1 8.589 5.726 0.0
87 1 8.589 5.726 2.863
88 1 8.589 5.726 5.726
89 1 8.589 5.726 8.589
90 1 8.589 5.726 11.452
91 1 8.589 8.589 0.0
92 1 8.589 8.589 2.863
93 1 8.589 8.589 5.726
94 1 8.589 8.589 8.589
95 1 8.589 8.589 11.452
96 1 8.589 11.452 0.0
97 1 8.589 11.452 2.863
98 1 8.589 11.452 5.726
99 1 8.589 11.452 8.589
100 1 8.589 11.452 11.452
101 1 11.452 0.0 0.0
102 1 11.452 0.0 2.863
103 1 11.452 0.0 5.726
104 1 11.452 0.0 8.589
105 1 11.452 0.0 11.452
106 1 11.452 2.863 0.0
107 1 11.452 2.863 2.863
108 1 11.452 2.863 5.726
109 1 11.452 2.863 8.589
110 1 11.452 2.863 11.452
111 1 11.452 5.726 0.0
112 1 11.452 5.726 2.863
113 1 11.452 5.726 5.726
114 1 11.452 5.726 8.589
115 1 11.452 5.726 11.452
116 1 11.452 8.589 0.0
117 1 11.452 8.589 2.863
118 1 11.452 8.589 5.726
119 1 11.452 8.589 8.589
120 1 11.452 8.589 11.452
121 1 11.452 11.452 0.0
122 1 11.452 11.452 2.863
123 1 11.452 11.452 5.726
124 1 11.452 11.452 8.589
125 1 11.452 11.452 11.452
126 1 1.4315 1.4315 1.4315
127 1 1.4315 1.4315 4.2945
128 1 1.4315 1.4315 7.1575
129 1 1.4315 1.4315 10.0205
130 1 1.4315 1.4315 12.8835
131 1 1.4315 4.2945 1.4315
132 1 1.4315 4.2945 4.2945
133 1 1.4315 4.2945 7.1575
134 1 1.4315 4.2945 10.0205
135 1 1.4315 4.2945 12.8835
136 1 1.4315 7.1575 1.4315
137 1 1.4315 7.1575 4.2945
138 1 1.4315 7.1575 7.1575
139 1 1.4315 7.1575 10.0205
140 1 1.4315 7.1575 12.8835
141 1 1.4315 10.0205 1.4315
142 1 1.4315 10.0205 4.2945
143 1 1.4315 10.0205 7.1575
144 1 1.4315 10.0205 10.0205
145 1 1.4315 10.0205 12.8835
146 1 1.4315 12.8835 1.4315
147 1 1.4315 12.8835 4.2945
148 1 1.4315 12.8835 7.1575
149 1 1.4315 12.8835 10.0205
150 1 1.4315 12.8835 12.8835
151 1 4.2945 1.4315 1.4315
152 1 4.2945 1.4315 4.2945
153 1 4.2945 1.4315 7.1575
154 1 4.2945 1.4315 10.0205
155 1 4.2945 1.4315 12.8835
156 1 4.2945 4.2945 1.4315
157 1 4.2945 4.2945 4.2945
158 1 4.2945 4.2945 7.1575
159 1 4.2945 4.2945 10.0205
160 1 4.2945 4.2945 12.8835
161 1 4.2945 7.1575 1.4315
162 1 4.2945 7.1575 4.2945
163 1 4.2945 7.1575 7.1575
164 1 4.2945 7.1575 10.0205
165 1 4.2945 7.1575 12.8835
166 1 4.2945 10.0205 1.4315
167 1 4.2945 10.0205 4.2945
168 1 4.2945 10.0205 7.1575
169 1 4.2945 10.0205 10.0205
170 1 4.2945 10.0205 12.8835
171 1 4.2945 12.8835 1.4315
172 1 4.2945 12.8835 4.2945
173 1 4.2945 12.8835 7.1575
174 1 4.2945 12.8835 10.0205
175 1 4.2945 12.8835 12.8835
176 1 7.1575 1.4315 1.4315
177 1 7.1575 1.4315 4.2945
178 1 7.1575 1.4315 7.1575
179 1 7.1575 1.4315 10.0205
180 1 7.1575 1.4315 12.8835
181 1 7.1575 4.2945 1.4315
182 1 7.1575 4.2945 4.2945
183 1 7.1575 4.2945 7.1575
184 1 7.1575 4.2945 10.0205
185 1 7.1575 4.2945 12.8835
186 1 7.1575 7.1575 1.4315
187 1 7.1575 7.1575 4.2945
188 1 7.1575 7.1575 7.1575
189 1 7.1575 7.1575 10.0205
190 1 7.1575 7.1575 12.8835
191 1 7.1575 10.0205 1.4315
192 1 7.1575 10.0205 4.2945
193 1 7.1575 10.0205 7.1575
194 1 7.1575 10.0205 10.0205
195 1 7.1575 10.0205 12.8835
196 1 7.1575 12.8835 1.4315
197 1 7.1575 12.8835 4.2945
198 1 7.1575 12.8835 7.1575
199 1 7.1575 12.8835 10.0205
200 1 7.1575 12.8835 12.8835
201 1 10.0205 1.4315 1.4315
202 1 10.0205 1.4315 4.2945
203 1 10.0205 1.4315 7.1575
204 1 10.0205 1.4315 10.0205
205 1 10.0205 1.4315 12.8835
206 1 10.0205 4.2945 1.4315
207 1 10.0205 4.2945 4.2945
208 1 10.0205 4.2945 7.1575
209 1 10.0205 4.2945 10.0205
210 1 10.0205 4.2945 12.8835
211 1 10.0205 7.1575 1.4315
212 1 10.0205 7.1575 4.2945
213 1 10.0205 7.1575 7.1575
214 1 10.0205 7.1575 10.0205
215 1 10.0205 7.1575 12.8835
216 1 10.0205 10.0205 1.4315
217 1 10.0205 10.0205 4.2945
218 1 10.0205 10.0205 7.1575
219 1 10.0205 10.0205 10.0205
220 1 10.0205 10.0205 12.8835
221 1 10.0205 12.8835 1.4315
222 1 10.0205 12.8835 4.2945
223 1 10.0205 12.8835 7.1575
224 1 10.0205 12.8835 10.0205
225 1 10.0205 12.8835 12.8835
226 1 12.8835 1.4315 1.4315
227 1 12.8835 1.4315 4.2945
228 1 12.8835 1.4315 7.1575
229 1 12.8835 1.4315 10.0205
230 1 12.8835 1.4315 12.8835
231 1 12.8835 4.2945 1.4315
232 1 12.8835 4.2945 4.2945
233 1 12.8835 4.2945 7.1575
234 1 12.8835 4.2945 10.0205
235 1 12.8835 4.2945 12.8835
236 1 12.8835 7.1575 1.4315
237 1 12.8835 7.1575 4.2945
238 1 12.8835 7.1575 7.1575
239 1 12.8835 7.1575 10.0205
240 1 12.8835 7.1575 12.8835
241 1 12.8835 10.0205 1.4315
242 1 12.8835 10.0205 4.2945
243 1 12.8835 10.0205 7.1575
244 1 12.8835 10.0205 10.0205
245 1 12.8835 10.0205 12.8835
246 1 12.8835 12.8835 1.4315
247 1 12.8835 12.8835 4.2945
248 1 12.8835 12.8835 7.1575
249 1 12.8835 12.8835 10.0205
250 1 12.8835 12.8835 12.8835
ITEM: TIMESTEP
0
ITEM: NUMBER OF ATOMS
250
ITEM: BOX BOUNDS pp pp pp
0.0 14.315
0.0 14.315
0.0 14.315
ITEM: ATOMS id type x y z
1 1 0.0 0.0 0.0
2 1 0.0 0.0 2.863
3 1 0.0 0.0 5.726
4 1 0.0 0.0 8.589
5 1 0.0 0.0 11.452
6 1 0.0 2.863 0.0
7 1 0.0 2.863 2.863
8 1 0.0 2.863 5.726
9 1 0.0 2.863 8.589
10 1 0.0 2.863 11.452
11 1 0.0 5.726 0.0
12 1 0.0 5.726 2.863
13 1 0.0 5.726 5.726
14 1 0.0 5.726 8.589
15 1 0.0 5.726 11.452
16 1 0.0 8.589 0.0
17 1 0.0 8.589 2.863
18 1 0.0 8.589 5.726
19 1 0.0 8.589 8.589
20 1 0.0 8.589 11.452
21 1 0.0 11.452 0.0
22 1 0.0 11.452 2.863
23 1 0.0 11.452 5.726
24 1 0.0 11.452 8.589
25 1 0.0 11.452 11.452
26 1 2.863 0.0 0.0
27 1 2.863 0.0 2.863
28 1 2.863 0.0 5.726
29 1 2.863 0.0 8.589
30 1 2.863 0.0 11.452
31 1 2.863 2.863 0.0
32 1 2.863 2.863 2.863
33 1 2.863 2.863 5.726
34 1 2.863 2.863 8.589
35 1 2.863 2.863 11.452
36 1 2.863 5.726 0.0
37 1 2.863 5.726 2.863
38 1 2.863 5.726 5.726
39 1 2.863 5.726 8.589
40 1 2.863 5.726 11.452
41 1 2.863 8.589 0.0
42 1 2.863 8.589 2.863
43 1 2.863 8.589 5.726
44 1 2.863 8.589 8.589
45 1 2.863 8.589 11.452
46 1 2.863 11.452 0.0
47 1 2.863 11.452 2.863
48 1 2.863 11.452 5.726
49 1 2.863 11.452 8.589
50 1 2.863 11.452 11.452
51 1 5.726 0.0 0.0
52 1 5.726 0.0 2.863
53 1 5.726 0.0 5.726
54 1 5.726 0.0 8.589
55 1 5.726 0.0 11.452
56 1 5.726 2.863 0.0
57 1 5.726 2.863 2.863
58 1 5.726 2.863 5.726
59 1 5.726 2.863 8.589
60 1 5.726 2.863 11.452
61 1 5.726 5.726 0.0
62 1 5.726 5.726 2.863
63 1 5.726 5.726 5.726
64 1 5.726 5.726 8.589
65 1 5.726 5.726 11.452
66 1 5.726 8.589 0.0
67 1 5.726 8.589 2.863
68 1 5.726 8.589 5.726
69 1 5.726 8.589 8.589
70 1 5.726 8.589 11.452
71 1 5.726 11.452 0.0
72 1 5.726 11.452 2.863
73 1 5.726 11.452 5.726
74 1 5.726 11.452 8.589
75 1 5.726 11.452 11.452
76 1 8.589 0.0 0.0
77 1 8.589 0.0 2.863
78 1 8.589 0.0 5.726
79 1 8.589 0.0 8.589
80 1 8.589 0.0 11.452
81 1 8.589 2.863 0.0
82 1 8.589 2.863 2.863
83 1 8.589 2.863 5.726
84 1 8.589 2.863 8.589
85 1 8.589 2.863 11.452
86 1 8.589 5.726 0.0
87 1 8.589 5.726 2.863
88 1 8.589 5.726 5.726
89 1 8.589 5.726 8.589
90 1 8.589 5.726 11.452
91 1 8.589 8.589 0.0
92 1 8.589 8.589 2.863
93 1 8.589 8.589 5.726
94 1 8.589 8.589 8.589
95 1 8.589 8.589 11.452
96 1 8.589 11.452 0.0
97 1 8.589 11.452 2.863
98 1 8.589 11.452 5.726
99 1 8.589 11.452 8.589
100 1 8.589 11.452 11.452
101 1 11.452 0.0 0.0
102 1 11.452 0.0 2.863
103 1 11.452 0.0 5.726
104 1 11.452 0.0 8.589
105 1 11.452 0.0 11.452
106 1 11.452 2.863 0.0
107 1 11.452 2.863 2.863
108 1 11.452 2.863 5.726
109 1 11.452 2.863 8.589
110 1 11.452 2.863 11.452
111 1 11.452 5.726 0.0
112 1 11.452 5.726 2.863
113 1 11.452 5.726 5.726
114 1 11.452 5.726 8.589
115 1 11.452 5.726 11.452
116 1 11.452 8.589 0.0
117 1 11.452 8.589 2.863
118 1 11.452 8.589 5.726
119 1 11.452 8.589 8.589
120 1 11.452 8.589 11.452
121 1 11.452 11.452 0.0
122 1 11.452 11.452 2.863
123 1 11.452 11.452 5.726
124 1 11.452 11.452 8.589
125 1 11.452 11.452 11.452
126 1 1.4315 1.4315 1.4315
127 1 1.4315 1.4315 4.2945
128 1 1.4315 1.4315 7.1575
129 1 1.4315 1.4315 10.0205
130 1 1.4315 1.4315 12.8835
131 1 1.4315 4.2945 1.4315
132 1 1.4315 4.2945 4.2945
133 1 1.4315 4.2945 7.1575
134 1 1.4315 4.2945 10.0205
135 1 1.4315 4.2945 12.8835
136 1 1.4315 7.1575 1.4315
137 1 1.4315 7.1575 4.2945
138 1 1.4315 7.1575 7.1575
139 1 1.4315 7.1575 10.0205
140 1 1.4315 7.1575 12.8835
141 1 1.4315 10.0205 1.4315
142 1 1.4315 10.0205 4.2945
143 1 1.4315 10.0205 7.1575
144 1 1.4315 10.0205 10.0205
145 1 1.4315 10.0205 12.8835
146 1 1.4315 12.8835 1.4315
147 1 1.4315 12.8835 4.2945
148 1 1.4315 12.8835 7.1575
149 1 1.4315 12.8835 10.0205
150 1 1.4315 12.8835 12.8835
151 1 4.2945 1.4315 1.4315
152 1 4.2945 1.4315 4.2945
153 1 4.2945 1.4315 7.1575
154 1 4.2945 1.4315 10.0205
155 1 4.2945 1.4315 12.8835
156 1 4.2945 4.2945 1.4315
157 1 4.2945 4.2945 4.2945
158 1 4.2945 4.2945 7.1575
159 1 4.2945 4.2945 10.0205
160 1 4.2945 4.2945 12.8835
161 1 4.2945 7.1575 1.4315
162 1 4.2945 7.1575 4.2945
163 1 4.2945 7.1575 7.1575
164 1 4.2945 7.1575 10.0205
165 1 4.2945 7.1575 12.8835
166 1 4.2945 10.0205 1.4315
167 1 4.2945 10.0205 4.2945
168 1 4.2945 10.0205 7.1575
169 1 4.2945 10.0205 10.0205
170 1 4.2945 10.0205 12.8835
171 1 4.2945 12.8835 1.4315
172 1 4.2945 12.8835 4.2945
173 1 4.2945 12.8835 7.1575
174 1 4.2945 12.8835 10.0205
175 1 4.2945 12.8835 12.8835
176 1 7.1575 1.4315 1.4315
177 1 7.1575 1.4315 4.2945
178 1 7.1575 1.4315 7.1575
179 1 7.1575 1.4315 10.0205
180 1 7.1575 1.4315 12.8835
181 1 7.1575 4.2945 1.4315
182 1 7.1575 4.2945 4.2945
183 1 7.1575 4.2945 7.1575
184 1 7.1575 4.2945 10.0205
185 1 7.1575 4.2945 12.8835
186 1 7.1575 7.1575 1.4315
187 1 7.1575 7.1575 4.2945
188 1 7.1575 7.1575 7.1575
189 1 7.1575 7.1575 10.0205
190 1 7.1575 7.1575 12.8835
191 1 7.1575 10.0205 1.4315
192 1 7.1575 10.0205 4.2945
193 1 7.1575 10.0205 7.1575
194 1 7.1575 10.0205 10.0205
195 1 7.1575 10.0205 12.8835
196 1 7.1575 12.8835 1.4315
197 1 7.1575 12.8835 4.2945
198 1 7.1575 12.8835 7.1575
199 1 7.1575 12.8835 10.0205
200 1 7.1575 12.8835 12.8835
201 1 10.0205 1.4315 1.4315
202 1 10.0205 1.4315 4.2945
203 1 10.0205 1.4315 7.1575
204 1 10.0205 1.4315 10.0205
205 1 10.0205 1.4315 12.8835
206 1 10.0205 4.2945 1.4315
207 1 10.0205 4.2945 4.2945
208 1 10.0205 4.2945 7.1575
209 1 10.0205 4.2945 10.0205
210 1 10.0205 4.2945 12.8835
211 1 10.0205 7.1575 1.4315
212 1 10.0205 7.1575 4.2945
213 1 10.0205 7.1575 7.1575
214 1 10.0205 7.1575 10.0205
215 1 10.0205 7.1575 12.8835
216 1 10.0205 10.0205 1.4315
217 1 10.0205 10.0205 4.2945
218 1 10.0205 10.0205 7.1575
219 1 10.0205 10.0205 10.0205
220 1 10.0205 10.0205 12.8835
221 1 10.0205 12.8835 1.4315
222 1 10.0205 12.8835 4.2945
223 1 10.0205 12.8835 7.1575
224 1 10.0205 12.8835 10.0205
225 1 10.0205 12.8835 12.8835
226 1 12.8835 1.4315 1.4315
227 1 12.8835 1.4315 4.2945
228 1 12.8835 1.4315 7.1575
229 1 12.8835 1.4315 10.0205
230 1 12.8835 1.4315 12.8835
231 1 12.8835 4.2945 1.4315
232 1 12.8835 4.2945 4.2945
233 1 12.8835 4.2945 7.1575
234 1 12.8835 4.2945 10.0205
235 1 12.8835 4.2945 12.8835
236 1 12.8835 7.1575 1.4315
237 1 12.8835 7.1575 4.2945
238 1 12.8835 7.1575 7.1575
239 1 12.8835 7.1575 10.0205
240 1 12.8835 7.1575 12.8835
241 1 12.8835 10.0205 1.4315
242 1 12.8835 10.0205 4.2945
243 1 12.8835 10.0205 7.1575
244 1 12.8835 10.0205 10.0205
245 1 12.8835 10.0205 12.8835
246 1 12.8835 12.8835 1.4315
247 1 12.8835 12.8835 4.2945
248 1 12.8835 12.8835 7.1575
249 1 12.8835 12.8835 10.0205
250 1 12.8835 12.8835 12.8835
