ITEM: TIMESTEP
5000000
ITEM: NUMBER OF ATOMS
4261
ITEM: BOX BOUNDS pp pp pp
-100.0 100.0
-100.0 100.0
-100.0 100.0
ITEM: ATOMS id type x y z
2860 1 -34.4085 1.00665 -29.5511
13132 1 -36.0017 5.09152 -27.2866
12932 1 -34.3677 9.82372 -27.1011
444 1 -34.803 -14.818 -23.3951
632 1 -35.2858 -7.96509 -26.9616
7766 1 -34.1797 -11.2072 -26.5158
497 1 -36.3191 -2.49264 -27.3623
2841 1 -37.8791 -4.03039 -23.9917
2900 1 -39.0714 -0.385006 -23.3262
13175 1 -37.3409 2.18533 -25.1845
13190 1 -37.971 7.54484 -23.0783
18248 1 -35.9701 25.7179 -2.74009
12970 1 -37.1605 12.079 -23.3927
14366 1 -33.4258 12.7358 -14.3334
614 1 -36.0457 -15.3808 -19.658
2851 1 -39.3717 -7.74648 -20.3341
2843 1 -36.8067 -10.0297 -22.6738
13005 1 -33.898 25.7576 -14.6899
2858 1 -40.5184 -2.51135 -18.6881
2863 1 -40.576 2.94282 -19.7833
2922 1 -33.7859 6.81349 -20.4299
2935 1 -40.518 6.74503 -18.806
13254 1 -39.6124 11.7551 -19.5484
13178 1 -36.534 17.0627 -20.576
13244 1 -34.182 21.7515 -21.3292
570 1 -35.2488 -19.2653 -16.9403
2874 1 -38.0481 -15.7324 -15.6463
3163 1 -33.5634 14.318 -4.04648
2981 1 -40.5743 -12.7537 -14.0286
2896 1 -40.1273 -8.15578 -16.9258
2954 1 -41.3698 -9.46995 -13.657
529 1 -34.3368 -7.39744 -17.8914
530 1 -35.9714 -2.47922 -16.4417
2892 1 -42.7046 -0.798247 -14.3778
3014 1 -35.813 2.05746 -14.2684
2940 1 -42.3831 4.69538 -14.492
3015 1 -35.4234 2.87101 -17.4363
13497 1 -41.1064 10.5189 -15.2958
3032 1 -35.0635 10.7676 -16.6051
3033 1 -36.5269 9.3114 -13.3515
2945 1 -40.4155 15.3722 -13.9987
2872 1 -38.8637 16.6714 -16.868
13547 1 -35.0858 22.5326 -17.8152
5234 1 -37.2841 21.56 -14.199
3242 1 -42.6498 -10.8269 -0.306915
3096 1 -36.1762 -21.2789 -12.524
516 1 -38.2389 -17.8722 -11.7436
766 1 -41.2049 -12.9482 -10.7012
2963 1 -36.362 -11.852 -10.9774
2876 1 -42.9703 -7.68553 -9.4205
774 1 -36.7145 -9.39963 -12.9808
2875 1 -42.2381 -4.68796 -13.1933
2989 1 -37.3338 -4.08682 -11.7148
2918 1 -38.2802 -1.13546 -11.3802
3000 1 -44.0988 2.87798 -10.0825
2932 1 -37.3142 4.74296 -12.546
3088 1 -34.2781 2.91714 -10.0487
2936 1 -43.1692 7.6975 -11.2741
2948 1 -42.1766 12.7756 -11.0241
5239 1 -36.7844 13.1575 -10.4723
3069 1 -39.918 17.7179 -11.2219
13828 1 -35.6441 16.1197 -10.5267
18068 1 -37.3099 23.2532 -10.2277
1069 1 -33.7503 -20.2284 -0.414055
692 1 -36.1241 -23.5866 -6.93597
894 1 -39.0433 -18.0504 -7.82668
3070 1 -40.9299 -16.0153 -5.8754
3101 1 -41.932 -12.0654 -5.11155
3076 1 -35.2719 -13.5332 -8.6118
3246 1 -36.6366 -10.6736 -4.93118
3126 1 -43.2331 -5.88809 -6.84544
3006 1 -37.7191 -5.2127 -6.44965
2971 1 -35.84 -4.67708 -8.86386
2893 1 -43.8036 -0.834959 -8.82953
3020 1 -44.555 -1.9392 -4.70912
3156 1 -39.1787 2.55466 -7.81876
3431 1 -33.5986 -0.220518 -9.03457
3287 1 -39.6973 3.5908 -4.86055
3044 1 -44.1774 8.66455 -6.9691
3188 1 -39.5146 8.29878 -7.97883
3024 1 -35.751 6.54801 -5.21586
3182 1 -36.5073 7.91717 -8.293
3061 1 -42.9655 12.7215 -4.93882
3184 1 -34.8309 11.8404 -8.31348
5224 1 -41.0095 17.4412 -5.46754
14126 1 -34.6839 18.634 -5.52725
18208 1 -39.1876 20.9381 -5.83876
18117 1 -34.4638 27.7105 -7.83833
867 1 -35.7006 -24.5235 -3.73481
1099 1 -38.7393 -19.8945 -2.4588
931 1 -33.8004 -17.7558 -2.40271
3212 1 -41.0621 -15.8604 -1.57017
743 1 -33.7527 -16.1191 -6.23529
3149 1 -43.8872 -5.14092 -1.89294
3134 1 -37.2223 -4.57448 -3.47054
3385 1 -34.2739 -5.46976 -2.91813
1324 1 -33.6501 -27.0796 -2.37026
3304 1 -44.9426 0.0314548 -1.22002
5334 1 -39.5388 18.6238 -0.366417
3420 1 -38.8166 1.1051 -2.97057
1108 1 -33.6539 -14.8369 -1.19463
3280 1 -36.2082 -0.896685 -3.89632
1319 1 -34.0946 -11.6361 -5.80253
3130 1 -44.9698 4.37102 -4.46432
3154 1 -35.895 2.45789 -2.62172
3042 1 -43.8338 8.70502 -1.21975
3335 1 -38.5279 8.17847 -1.56585
3200 1 -37.7408 10.8484 -3.61027
3350 1 -42.4265 14.521 -0.743666
13788 1 -33.3752 9.70943 -13.1408
3361 1 -35.0158 11.9254 -2.58578
13242 1 -33.5924 27.6838 -11.0929
5285 1 -36.082 15.972 -4.06083
5232 1 -37.8454 23.3256 -1.19489
13687 1 -33.5814 -1.07638 -14.3166
13559 1 -33.4659 16.722 -15.7715
2848 1 -33.4215 -3.31756 -21.37
13192 1 -34.0162 18.5217 -23.9268
823 1 -33.4199 -24.3364 -15.0959
1063 1 -36.5876 -23.5402 1.8873
3376 1 -40.1867 -16.9635 4.53903
3250 1 -37.6886 -9.17244 0.228847
3380 1 -35.8272 -13.8208 1.6371
3443 1 -43.9418 -3.07543 2.22644
3423 1 -39.6585 -6.52073 1.26166
3383 1 -38.7803 -3.23769 1.66112
3629 1 -38.8375 -2.63333 4.73467
3475 1 -35.1936 -6.53291 4.41314
3151 1 -44.3223 1.81079 3.45072
3533 1 -43.3427 6.17419 4.39793
3309 1 -38.308 4.89152 2.72822
18740 1 -33.4522 27.786 5.69991
3460 1 -35.0943 5.6836 2.52214
3598 1 -33.5798 -7.86943 11.5942
3337 1 -35.7134 10.2502 2.11557
1008 1 -33.9752 -26.2227 5.46573
3173 1 -43.0521 10.7278 2.04421
5260 1 -41.9445 14.0982 2.49934
3578 1 -33.3122 -3.25915 8.1469
5319 1 -36.7372 14.7715 3.38026
3363 1 -35.1369 17.9019 2.45303
5264 1 -39.1021 20.1796 4.00047
5231 1 -35.6227 25.2688 3.29412
1098 1 -38.2204 -19.8838 6.35108
3492 1 -39.7798 0.195721 0.098544
3405 1 -41.9561 -11.8722 6.13527
3559 1 -35.4544 -13.584 9.52094
3625 1 -38.4475 -7.43917 5.74601
3589 1 -37.0073 -10.1576 5.14877
3708 1 -33.5686 7.97335 12.0578
3679 1 -43.1147 -5.99158 7.05384
3810 1 -38.156 -6.27158 8.97967
3328 1 -43.7883 -1.83072 5.90521
3310 1 -36.0801 -1.95172 7.12544
3509 1 -42.5564 2.74569 8.97989
3480 1 -37.6599 1.97708 7.50042
5307 1 -41.7376 10.3493 7.11158
3544 1 -36.554 9.65149 6.24186
5267 1 -40.8548 16.2278 7.06624
5345 1 -38.4014 19.6008 9.2785
5337 1 -34.1851 16.2349 7.83344
5433 1 -36.3013 23.7751 7.1041
5406 1 -33.762 11.0794 15.9504
3735 1 -36.7975 -20.763 11.6821
3553 1 -40.1223 -15.6966 9.8937
1677 1 -40.6812 -11.8355 13.7635
3619 1 -41.7496 -9.33189 10.71
3557 1 -36.0038 -9.12021 13.0854
3649 1 -42.639 -5.43032 10.6515
3845 1 -36.1802 -3.31512 9.58081
4303 1 -34.0353 7.42035 27.0292
3686 1 -41.2059 -0.992057 13.6146
3659 1 -36.7427 -1.22168 11.9832
3665 1 -35.7261 3.11327 10.2279
3528 1 -40.8312 6.76287 12.0949
3689 1 -35.9779 6.40325 10.1661
5353 1 -35.5159 12.717 11.4141
5315 1 -39.8917 15.8724 12.4065
5278 1 -34.4958 15.5691 11.5487
5419 1 -37.3421 20.7495 12.5482
1676 1 -36.2144 -18.2473 17.6257
3769 1 -35.2808 -8.75373 25.3273
3972 1 -38.1514 -15.3532 16.5353
4197 1 -33.9283 -13.1939 26.1039
4040 1 -39.1361 -9.61665 18.566
3876 1 -40.6939 -6.99366 15.2663
4006 1 -35.0923 -3.84879 16.1049
3911 1 -39.8942 4.12041 16.5924
3851 1 -34.9499 3.37833 15.2367
3530 1 -39.1984 11.7333 14.903
5316 1 -36.8379 16.6101 16.8378
5517 1 -34.606 20.8363 16.7665
4039 1 -35.6127 -3.06087 25.5928
4603 1 -34.7668 -15.3165 22.5962
4203 1 -36.2192 -12.5253 20.852
4123 1 -37.1046 -7.50286 22.312
3681 1 -39.1669 -4.58624 18.3374
5394 1 -35.9333 2.16805 25.9398
3906 1 -39.8154 0.327541 18.7266
4104 1 -37.771 0.294619 21.8853
4105 1 -33.6783 8.17636 17.8676
4069 1 -37.9763 4.27753 21.8949
5393 1 -38.2774 8.55651 19.3028
5418 1 -35.7697 8.79919 23.613
3357 1 -36.463 13.0036 19.9201
5468 1 -34.3202 14.621 22.7604
1103 1 -33.6409 -17.0889 5.53117
3888 1 -33.9131 -1.14163 4.74726
5374 1 -33.8318 25.0905 13.2205
1488 1 -33.6869 -24.2067 14.0014
5325 1 -33.4074 19.5898 8.30337
1252 1 -33.6471 -25.8908 10.118
6199 1 1.94481 -34.3809 -28.1372
5873 1 6.90887 -33.9165 -27.5895
6683 1 -1.31859 -33.5337 -0.468008
52 1 -9.41785 -36.232 -25.0834
5680 1 -4.76167 -36.8714 -25.2473
5792 1 -0.580498 -36.768 -25.437
89 1 3.42379 -36.7306 -23.4993
6019 1 9.44595 -35.0074 -24.4254
5880 1 13.4189 -33.7486 -24.4934
5780 1 -7.78183 -38.842 -20.9972
6215 1 -4.10207 -40.4895 -19.1228
5672 1 -2.17129 -38.769 -21.3637
5689 1 5.99132 -39.4195 -18.503
6236 1 9.69976 -38.4095 -18.6205
657 1 -15.0704 -36.0925 -19.7387
6996 1 30.1883 -33.4566 -0.240976
6222 1 -11.1152 -37.7435 -19.9848
5984 1 -3.64464 -33.7518 -17.2135
5758 1 7.53818 -36.8922 -22.031
6793 1 16.3952 -33.411 -10.2927
5770 1 11.6682 -36.6526 -21.0285
1185 1 -9.71884 -33.7432 -18.0404
6033 1 16.7913 -34.9018 -20.7294
6202 1 3.25993 -42.2206 -14.3045
23 1 -13.6388 -39.1606 -15.7657
6405 1 -7.95275 -40.4124 -15.3325
6360 1 -2.03179 -41.0932 -15.6251
6190 1 0.903088 -39.8759 -18.3115
6279 1 14.3628 -38.831 -15.4148
6216 1 13.0119 -40.5045 -12.6053
12 1 -19.7569 -34.9002 -17.7007
41 1 -17.9343 -36.8021 -14.5376
1153 1 -7.02015 -35.9136 -13.8555
18 1 -12.87 -33.784 -25.4925
5944 1 -1.84695 -35.9526 -17.2502
5939 1 5.60516 -35.3896 -14.9204
6253 1 11.0135 -34.0913 -15.6511
6246 1 4.61848 -33.5765 -19.5348
6554 1 15.4486 -33.8407 -13.302
6437 1 20.2817 -36.2677 -16.2341
7143 1 26.9462 -36.2976 -0.268636
202 1 -7.97954 -42.1386 -10.8773
152 1 -3.06609 -42.4896 -11.956
59 1 -17.8646 -38.9278 -8.96537
87 1 -13.2698 -39.5163 -12.0353
6232 1 -4.46934 -38.3237 -9.62356
6021 1 5.67837 -41.7989 -10.3315
6061 1 8.92862 -40.7902 -13.538
6753 1 15.0483 -40.5765 -9.66057
6794 1 18.282 -37.7621 -12.9228
670 1 -24.8257 -34.5083 -9.88306
799 1 -21.2507 -36.784 -9.968
81 1 -11.1576 -35.1556 -10.7138
6146 1 -3.52583 -37.1434 -12.2749
6095 1 -4.78638 -34.1935 -12.2872
6235 1 2.04854 -37.8333 -10.8668
6319 1 0.421903 -35.4792 -11.9509
6658 1 3.85127 -36.1857 -8.713
6462 1 7.15548 -36.1145 -11.8728
6477 1 8.33086 -33.7279 -9.59597
6413 1 13.528 -35.468 -11.3312
169 1 -17.3142 -35.1701 -0.275684
6814 1 23.312 -35.7376 -12.5514
236 1 -7.59782 -43.7141 -6.67125
88 1 -10.7346 -41.8887 -7.61074
6779 1 -2.63886 -43.2047 -8.15296
6417 1 1.84285 -43.3396 -8.25384
6573 1 5.37454 -43.3071 -6.00156
138 1 -15.0168 -41.4822 -4.46771
1158 1 -3.80346 -39.0559 -4.88002
283 1 1.79202 -38.2711 -4.74794
5893 1 10.5796 -41.8976 -7.27607
6429 1 18.8018 -39.4234 -7.56804
68 1 -22.7934 -36.9743 -5.98141
72 1 -15.9823 -34.2803 -7.52127
1345 1 -9.00109 -37.8486 -6.6043
6410 1 -1.88967 -34.7973 -7.5832
6607 1 8.43055 -34.0504 -6.33748
6601 1 9.40254 -36.7005 -6.96891
6976 1 14.2729 -36.8557 -5.59795
6387 1 22.55 -37.5244 -8.81601
5675 1 -8.34187 -33.297 -27.739
6578 1 28.4049 -34.4095 -4.08509
6942 1 26.7453 -35.2806 -8.66231
188 1 -10.4036 -43.2753 -1.96706
6189 1 -6.90445 -43.5999 -1.52651
6590 1 0.333884 -33.3902 -5.64594
6747 1 -2.6954 -43.8903 -4.48255
6022 1 -2.1173 -43.8871 -0.861866
285 1 2.01658 -44.0124 -2.97919
6542 1 7.53925 -43.0645 -2.92643
197 1 -19.167 -40.0586 -3.34449
1130 1 -15.5693 -42.0329 -0.918069
159 1 -8.09981 -38.4176 -1.10726
654 1 -22.9209 -33.7485 -13.7373
6831 1 6.70752 -38.1361 -1.84084
6582 1 12.8335 -42.0505 -3.58009
6765 1 19.6837 -40.0308 -0.998758
6376 1 16.7601 -40.9491 -2.88672
957 1 -23.5128 -37.3579 -2.38987
6966 1 16.8086 -35.554 -0.907677
120 1 -13.2891 -36.7017 -3.0894
62 1 -8.48484 -35.9858 -3.55749
6226 1 -0.0514085 -37.6708 -2.37493
10460 1 5.62672 -33.6672 -4.2085
6930 1 23.5914 -37.5469 -4.6092
6577 1 13.5052 -33.8566 -4.78427
6968 1 11.8014 -36.3111 -2.00525
48 1 -13.9946 -33.6418 -10.3132
7565 1 12.8838 -41.7525 -0.135168
7868 1 -2.77472 -33.5269 -29.7213
541 1 -15.6003 -33.5575 -22.3556
114 1 -13.3058 -43.0095 2.86567
248 1 -6.86137 -43.5638 1.80772
291 1 -1.15922 -43.5699 3.71967
6363 1 2.55664 -44.1583 1.23017
6937 1 8.60746 -43.8973 2.07012
212 1 -20.89 -39.7774 1.19233
246 1 -17.0609 -41.6203 3.94111
206 1 -8.10824 -38.9458 3.8993
7277 1 7.05863 -38.4394 3.54907
6739 1 13.3241 -42.1415 4.10969
1522 1 -25.2064 -36.2901 0.270949
6825 1 -0.404843 -39.5071 0.728731
1359 1 -17.6616 -36.214 2.44847
168 1 -11.8595 -36.1282 2.19228
174 1 -15.3062 -33.5205 3.48811
7230 1 8.96628 -33.6509 5.52389
6684 1 -3.99486 -36.5801 1.80685
2153 1 -15.3226 -33.6255 23.7111
1761 1 -1.89536 -34.033 2.88483
7222 1 2.29554 -37.5519 0.668553
6786 1 12.0836 -36.5475 3.31163
6383 1 24.1241 -37.561 1.6661
7294 1 27.9638 -34.4218 4.24587
6546 1 -9.77887 -43.6404 7.02422
273 1 -4.66605 -43.2922 5.29724
240 1 0.714402 -44.2279 7.43796
6589 1 7.35406 -43.4025 7.11887
7096 1 11.7757 -43.0874 8.12909
96 1 -18.7297 -40.0042 8.70638
315 1 -14.4417 -42.2277 6.97486
251 1 -8.70182 -38.7308 6.94241
1346 1 -4.49443 -38.8318 8.7373
6591 1 0.501969 -38.9005 5.92042
7001 1 3.55353 -39.9364 5.08869
6781 1 9.32161 -38.3106 6.38036
6729 1 18.956 -40.0556 4.77971
7439 1 16.3144 -40.4193 8.81226
7416 1 21.2079 -38.7912 6.61858
1554 1 -25.8764 -35.2463 6.45948
1714 1 -22.155 -37.9395 5.25176
1330 1 -18.7499 -34.5674 7.3433
388 1 1.0072 -33.6879 28.9141
230 1 -14.8652 -36.7222 5.05821
179 1 -10.2839 -36.0895 7.57875
318 1 -3.70382 -33.5632 8.98261
368 1 2.63223 -34.2502 9.6503
6964 1 5.02943 -35.7519 8.06012
7269 1 11.5416 -35.736 24.0275
7172 1 11.3236 -35.7124 6.49045
12403 1 14.9502 -33.8417 24.2689
7183 1 13.7769 -36.0258 8.65464
7024 1 16.5791 -35.2649 7.00277
6945 1 24.2999 -36.2949 7.4102
254 1 -8.67244 -42.5776 10.5574
341 1 -3.10417 -42.7844 11.8934
191 1 3.22867 -42.742 11.3388
2327 1 -18.3005 -38.6143 13.4522
2099 1 -14.105 -41.6592 10.82
7272 1 -5.88099 -41.7064 13.7943
6959 1 7.98479 -42.1715 11.8464
6550 1 11.6613 -41.5079 12.9964
7140 1 20.9977 -37.9068 10.8345
1351 1 -24.7179 -34.2559 13.7533
1323 1 -22.3188 -37.1109 10.5037
222 1 -13.4883 -36.8296 12.3537
1570 1 -9.47948 -33.7381 10.3294
243 1 -2.20807 -36.2441 9.59744
1929 1 -5.64803 -34.2374 13.2239
10982 1 -0.454786 -33.9096 10.8553
366 1 3.33094 -37.6293 10.2302
7216 1 9.21837 -37.1665 11.4951
403 1 -1.3307 -36.9536 24.7845
7263 1 23.4026 -35.1898 12.813
2129 1 -15.8571 -38.2564 16.9631
354 1 -11.1403 -40.8414 14.7288
370 1 0.441964 -41.174 16.1918
7271 1 8.00796 -41.2436 15.071
7604 1 13.6564 -38.1244 17.486
1924 1 -20.8148 -35.3706 16.3242
7434 1 7.01783 -37.2237 23.2951
2311 1 -13.6347 -33.8717 16.7187
2310 1 -6.95153 -34.8998 16.3467
1912 1 0.481076 -36.6272 14.4342
7169 1 6.31231 -34.1559 14.8163
7164 1 4.50255 -34.9934 17.3271
7317 1 11.8464 -34.0001 15.1742
7605 1 18.5898 -37.6658 14.1983
1737 1 -22.9817 -33.9309 18.0691
7536 1 -8.06296 -39.0686 18.6629
322 1 -4.06684 -39.8962 18.3321
7259 1 0.277666 -39.1324 21.5122
6915 1 4.70039 -39.577 19.4468
7276 1 8.88615 -38.5391 20.1339
316 1 -18.2005 -34.8316 19.8298
2156 1 -13.1012 -36.6023 20.652
2441 1 -10.2425 -35.825 22.8664
378 1 -0.938598 -34.6284 20.0338
351 1 1.84591 -37.2327 24.1348
7561 1 12.93 -37.0052 20.8309
412 1 6.67789 -34.9102 26.6551
405 1 18.4934 -35.2249 19.1784
2297 1 -11.6169 -34.3884 25.5952
385 1 -6.38371 -35.2624 26.0829
382 1 -4.70305 -37.175 23.1262
7058 1 11.6543 -34.3385 0.505588
7417 1 26.512 -33.4855 11.8772
2135 1 -2.94865 -33.8203 14.3871
5737 1 -2.18148 -18.3196 -41.2535
5650 1 3.44337 -16.6754 -41.5129
7679 1 -5.32327 -14.9667 -40.7126
8182 1 0.7803 -12.3756 -42.2666
20650 1 7.76765 -14.3824 -42.0424
8005 1 -5.36667 -10.1116 -42.626
20530 1 -2.44946 -7.39702 -43.5084
8188 1 4.93928 -9.31267 -43.1224
20531 1 10.6928 -10.2735 -42.4705
20682 1 14.197 -7.8943 -42.0563
7998 1 -16.8531 -2.58812 -41.1176
7780 1 -10.8152 -4.25819 -42.4313
7784 1 -6.76682 -5.86377 -43.217
7710 1 1.82904 -4.62688 -44.1741
20606 1 5.5857 -3.22547 -44.1265
20683 1 9.67715 -6.62735 -43.7242
20704 1 9.98461 -2.49313 -44.3317
20550 1 14.5606 -2.47627 -42.8478
20541 1 17.5617 -6.14179 -41.2728
7840 1 -12.6867 0.448516 -42.4416
7790 1 -8.32223 0.936448 -43.4983
7787 1 -3.62949 -1.52665 -44.237
20535 1 2.10517 -0.372694 -44.8222
22950 1 6.99967 2.3446 -44.805
20723 1 12.1573 2.52572 -43.9899
7672 1 -16.2271 2.61949 -42.0997
7660 1 -11.2005 5.69032 -41.7107
12885 1 -7.42413 6.42405 -42.8472
20604 1 -3.79557 4.4623 -44.0676
7788 1 2.02056 4.75262 -44.5921
20824 1 8.22312 6.323 -44.0693
12944 1 -17.3268 7.62822 -41.1645
13169 1 -8.89095 10.5448 -42.0748
12916 1 -4.00558 10.1307 -44.1774
12858 1 0.0664781 8.47121 -44.7232
20622 1 3.84691 8.15572 -43.9718
20875 1 11.5143 8.01291 -42.6376
22968 1 -8.91407 15.2008 -41.1626
12920 1 -4.65401 15.251 -42.3189
22937 1 0.22919 12.1417 -44.1267
7791 1 4.16762 13.5743 -42.6177
20904 1 8.4265 11.6514 -42.4357
22961 1 11.4956 11.3358 -41.6334
13129 1 2.44229 17.1946 -41.5081
8142 1 4.41398 -25.3594 -36.9734
7675 1 -10.2599 -22.7469 -36.3789
5681 1 -6.04279 -23.3689 -36.7937
8127 1 -5.69023 -20.1691 -38.6056
7948 1 -0.947399 -22.8027 -38.3242
20572 1 2.53306 -20.3985 -39.2313
5703 1 7.24908 -22.699 -37.1636
20133 1 11.8887 -20.796 -37.7557
5651 1 -12.3805 -18.6196 -37.7098
7897 1 -8.41236 -16.9702 -39.3118
8420 1 0.562153 -17.7902 -36.8543
5692 1 9.02489 -17.6925 -40.2024
8139 1 15.8758 -18.5531 -37.5048
7980 1 -16.9985 -15.1582 -36.7162
7656 1 -13.5109 -14.2483 -38.5552
7723 1 -9.15254 -11.3846 -40.5035
8181 1 4.82678 -13.7363 -36.4942
20569 1 12.0682 -15.5525 -40.5293
20577 1 16.1532 -11.2959 -39.7564
20765 1 19.7266 -14.1548 -36.7677
7760 1 -21.611 -11.0888 -36.4351
8062 1 -17.8998 -7.33235 -39.0883
7938 1 -17.5332 -11.1019 -38.5062
13063 1 -12.5834 -9.24896 -40.456
8478 1 0.460113 -10.987 -37.5818
7906 1 4.78047 -8.03203 -38.0437
20670 1 19.6014 -9.15968 -38.7729
7686 1 -23.2081 -5.29067 -36.7883
7699 1 -20.5754 -2.52852 -38.8197
8078 1 -11.5526 -2.64441 -37.3153
8279 1 -2.41972 -6.5416 -38.4388
8030 1 -5.50065 -6.65773 -38.4287
8000 1 2.35979 -3.38778 -39.2191
20658 1 10.2097 -5.75321 -38.83
20603 1 8.14996 -3.05831 -39.3894
20864 1 11.4736 -2.62023 -38.6958
8532 1 15.0828 -6.23981 -36.455
20668 1 20.7606 -5.98588 -38.8298
7807 1 -24.0 1.16616 -38.3341
12892 1 -14.4817 1.31685 -36.9772
7826 1 -11.7152 0.498562 -36.6593
8044 1 -6.56568 1.03376 -38.0087
8335 1 -2.84733 -0.951176 -39.0431
20675 1 3.04924 -0.244401 -39.3992
8234 1 5.44693 1.21447 -37.6312
20692 1 11.2873 0.502187 -38.4192
20773 1 18.2435 -0.454265 -40.6253
20168 1 23.5516 -2.17459 -37.6188
13025 1 -25.1715 5.47282 -36.5049
7665 1 -20.7113 1.99158 -40.3095
8318 1 -15.2657 5.77 -36.5636
13079 1 -2.86838 4.62551 -39.1331
20598 1 0.423901 3.55823 -36.3488
20543 1 1.95217 5.07203 -39.743
20545 1 7.25979 2.72884 -39.3643
21058 1 16.567 4.79989 -41.1042
21354 1 23.7294 2.42095 -37.0657
20893 1 20.524 1.52608 -39.1569
12913 1 -22.0462 7.67048 -38.4419
12910 1 -12.6088 8.66779 -40.8868
8031 1 -9.41767 8.19643 -36.4082
8095 1 -3.9513 7.21231 -37.1075
13118 1 -4.00943 10.3867 -36.8179
8384 1 -0.473145 9.59336 -37.79
20553 1 2.53957 7.80777 -38.2085
20629 1 3.89529 9.32555 -36.0209
20871 1 8.22209 8.45102 -38.1397
21061 1 15.7643 8.65734 -40.8699
20669 1 21.1571 7.04342 -38.07
20686 1 23.1966 10.2434 -36.6405
12947 1 -20.4521 13.4923 -37.202
12992 1 -15.2634 12.4603 -40.2653
22946 1 -1.14082 14.2277 -38.9403
20634 1 3.90281 15.3527 -37.2337
22992 1 10.327 15.3207 -41.0469
20562 1 15.8803 14.7422 -38.6782
13000 1 -16.4273 17.8921 -37.595
12942 1 -13.1316 16.9315 -39.4526
12998 1 -7.84485 18.6843 -39.3554
23002 1 -2.53813 18.8443 -40.2808
20754 1 6.4025 19.1444 -40.4665
20901 1 12.8611 19.0436 -38.7973
23195 1 16.7985 17.4992 -37.1354
23020 1 -11.5653 21.3262 -37.1885
22977 1 -8.5414 23.0349 -36.596
22939 1 0.869149 20.4635 -40.323
22964 1 5.53461 22.0381 -39.1865
23259 1 10.657 23.3862 -37.9316
23028 1 -2.89204 24.5575 -37.1331
23077 1 2.98728 24.4713 -38.2042
23013 1 6.94582 26.2175 -37.1732
8114 1 -8.91632 -26.663 -33.4433
8466 1 -3.24121 -26.6629 -35.4439
5742 1 0.991754 -27.0834 -34.6648
5773 1 6.51003 -28.4872 -33.8134
20147 1 10.5172 -25.4864 -34.8531
7884 1 -13.439 -22.8123 -34.1709
5904 1 3.00617 -20.4158 -32.4287
5852 1 6.78804 -22.7545 -31.563
20126 1 14.7109 -24.3544 -34.6234
5819 1 19.099 -22.593 -33.5211
7684 1 -23.9526 -17.3295 -31.4383
7879 1 -17.2866 -19.1182 -34.7949
8843 1 -10.5385 -15.4994 -34.2396
8126 1 -5.4489 -17.3496 -34.457
8707 1 -6.63074 -18.6543 -31.541
8176 1 0.143051 -19.7249 -31.4283
8429 1 2.40826 -17.6184 -33.9953
8753 1 8.24631 -18.8343 -33.6564
8724 1 13.4274 -17.1381 -33.4973
5966 1 20.8005 -18.7916 -34.6823
7812 1 -26.3342 -11.7102 -32.8884
7722 1 -21.3369 -15.0681 -34.8274
8516 1 -11.0877 -12.3997 -33.8559
8170 1 -6.57125 -14.7891 -34.8988
9099 1 -0.891837 -14.3349 -32.5862
8222 1 -1.55478 -12.5956 -35.55
8227 1 3.77972 -12.6825 -33.6471
8192 1 7.5618 -14.9005 -35.8785
8818 1 9.91263 -13.4309 -35.9367
20932 1 17.0825 -12.9018 -32.713
20284 1 22.8757 -14.7894 -34.7447
20225 1 25.732 -13.934 -32.5943
7663 1 -25.4528 -6.78918 -35.2194
8207 1 -19.547 -9.22815 -31.8798
8211 1 -14.3761 -10.2626 -32.0661
8028 1 -10.6519 -7.8248 -36.0327
8212 1 -5.98303 -10.0591 -33.7827
7704 1 -1.71595 -7.16234 -33.8036
8037 1 4.61365 -6.77197 -32.6527
8470 1 6.28073 -9.62368 -32.9627
9015 1 9.19278 -6.60423 -32.1551
20659 1 13.5001 -9.78423 -35.4069
20139 1 23.2412 -9.5382 -35.2624
7794 1 -29.5563 -4.93912 -32.6624
12872 1 -26.0844 -1.95496 -35.6241
8019 1 -20.1744 -4.03064 -32.8421
7772 1 -15.6226 -6.49362 -34.4815
7785 1 -8.49893 -3.09418 -36.513
13387 1 -9.12482 -3.32649 -32.9576
7985 1 -5.96523 -4.6197 -35.7815
8371 1 -3.87521 -2.69853 -35.2199
8237 1 9.97017 -5.65509 -35.2005
9109 1 7.21168 -4.77892 -33.9296
20812 1 17.5084 -5.62329 -34.6814
20791 1 26.812 -5.59229 -33.8304
7757 1 -29.7866 0.884577 -32.9302
13205 1 -27.0886 1.6631 -35.6634
13052 1 -17.3341 0.93919 -34.2805
13053 1 -15.1511 -1.74106 -34.0173
8571 1 -4.62398 -0.0221848 -33.3505
8621 1 -1.6328 1.85337 -34.5948
8323 1 2.52183 -1.66904 -33.7094
20836 1 10.1658 0.258523 -34.5527
20581 1 15.8543 -0.339898 -35.9223
20960 1 20.3498 -0.985794 -33.2941
20823 1 26.7218 -0.703414 -35.8046
12876 1 -29.4327 6.75944 -32.8472
13154 1 -19.9807 6.44324 -34.2868
20740 1 -7.83182 4.28983 -33.8272
8667 1 -0.0566079 3.27972 -32.0375
13641 1 4.06847 4.27555 -32.9077
20700 1 9.48795 3.1871 -34.231
20739 1 8.40584 6.61284 -35.6
20619 1 14.2459 4.63748 -37.0051
20938 1 17.4722 3.72357 -32.7918
21046 1 18.5039 6.37923 -33.8123
21076 1 26.1892 6.22316 -34.6435
21268 1 28.3948 3.31934 -33.7948
12862 1 -27.697 9.81575 -34.2686
2838 1 -24.4986 9.40233 -35.9879
13152 1 -21.8384 7.92932 -32.1789
13148 1 -13.5935 10.8458 -35.4518
8093 1 -11.1812 8.87188 -33.9438
13712 1 -9.20356 10.4093 -31.5796
8957 1 -6.30528 9.00167 -32.5204
13728 1 -0.179905 7.31924 -33.0586
20811 1 13.3411 7.57013 -35.8154
13016 1 -25.611 13.9343 -34.1395
12987 1 -18.4477 11.7766 -33.1209
13401 1 -8.26956 13.3164 -35.7411
13350 1 -3.65182 15.5865 -35.9682
8337 1 -1.68699 13.1737 -32.4358
20751 1 3.41857 11.212 -33.2508
23524 1 10.6317 11.8348 -34.7726
23338 1 8.17103 13.7896 -34.8144
23351 1 9.97875 13.4455 -31.8143
23192 1 13.7592 12.581 -34.5111
21242 1 21.1942 13.4017 -36.3532
20849 1 25.9881 11.9663 -33.8966
12990 1 -23.7582 17.3116 -33.5516
13730 1 -14.7081 15.8073 -33.2509
13489 1 -10.8859 19.0806 -32.7155
13448 1 -7.11154 16.1492 -34.8526
13354 1 -1.34623 17.5037 -35.6178
23008 1 4.21903 18.3248 -35.8575
23106 1 2.83586 19.1964 -33.3846
23341 1 9.4166 16.6602 -34.498
20890 1 12.6166 18.3675 -33.8605
21430 1 23.8852 17.3952 -33.2082
13293 1 -21.7518 21.5704 -33.072
12870 1 -16.7194 22.7364 -34.5917
23082 1 -1.54362 22.0901 -32.8717
23361 1 1.41264 22.1308 -31.5692
23073 1 7.9133 22.0098 -33.6709
21203 1 15.2156 22.3218 -35.9639
23374 1 19.517 20.6663 -34.3844
13271 1 -19.1495 25.3396 -32.1281
13228 1 -14.0985 25.9345 -33.46
22974 1 -10.2005 26.9766 -34.1754
23034 1 -6.30728 26.4331 -35.5417
23134 1 -3.26519 24.9287 -31.9885
23164 1 -1.63048 27.7011 -35.6489
23040 1 2.81338 27.4397 -36.3721
23030 1 6.47151 29.3131 -34.1818
20753 1 11.3056 26.0759 -34.7786
23101 1 11.5021 28.6362 -32.4214
23053 1 2.12619 31.2814 -31.7801
5710 1 -12.338 -29.7072 -29.4397
5767 1 -5.12544 -30.5853 -31.8823
8122 1 -0.817277 -30.6512 -31.4889
5883 1 3.14458 -31.3255 -30.712
5659 1 9.43138 -30.224 -31.0943
5763 1 11.314 -31.671 -28.399
8386 1 -20.701 -25.7783 -28.4896
8106 1 -16.7045 -25.1947 -30.4585
5978 1 -3.54521 -27.4073 -28.1974
5991 1 -1.43331 -24.6833 -29.2045
5810 1 8.12682 -26.4948 -28.1717
5807 1 15.1846 -27.8942 -30.4267
5957 1 20.2597 -25.7242 -29.5428
7877 1 -20.4445 -21.479 -30.7996
8152 1 -23.7319 -24.2766 -27.4618
8165 1 -11.5331 -19.7261 -30.2653
8746 1 -7.37838 -23.3316 -29.0901
8406 1 -2.69793 -21.6908 -27.4188
8409 1 3.77798 -22.9707 -30.0334
6166 1 3.94652 -21.6925 -27.3564
5859 1 12.1118 -21.5972 -31.7368
20205 1 22.446 -21.9452 -30.5202
414 1 -27.3868 -16.7384 -29.8738
7873 1 -25.7866 -19.3347 -29.1608
8157 1 -18.2817 -18.9034 -27.1325
7927 1 -15.0961 -15.9212 -31.4552
7894 1 -8.95289 -17.7955 -28.9671
8848 1 -5.99031 -16.4811 -29.29
8706 1 0.847187 -17.5028 -28.535
5849 1 8.73191 -18.7676 -28.4523
8723 1 10.7546 -16.6544 -28.6112
6008 1 14.2061 -19.4787 -29.0969
20159 1 17.5051 -18.8434 -30.3192
20191 1 19.9457 -16.0897 -29.0723
20155 1 24.8776 -18.2961 -30.8014
6087 1 29.0345 -16.5322 -29.427
442 1 -30.5825 -11.6747 -29.0065
7922 1 -22.5507 -14.7933 -27.511
7923 1 -17.6045 -14.4214 -30.2921
8545 1 -20.1742 -12.8617 -27.9267
8556 1 -17.4861 -11.3672 -30.2824
8209 1 -13.7687 -14.7684 -28.6349
8450 1 -10.6663 -13.7744 -28.5573
7888 1 -3.6314 -14.3222 -30.444
8813 1 -3.73196 -12.486 -27.9219
8798 1 1.2444 -12.087 -31.6927
9009 1 5.41315 -14.3795 -28.3086
8431 1 9.29942 -14.2863 -30.496
21071 1 15.0954 -14.041 -30.2524
20217 1 22.9686 -11.8544 -27.9575
21105 1 30.3267 -11.8396 -28.5174
8011 1 -30.9302 -8.4922 -30.2592
8293 1 -23.5308 -9.90789 -29.0016
7978 1 -19.7844 -6.70524 -29.7979
8306 1 -14.6185 -6.68939 -31.0895
8357 1 -9.35801 -8.72689 -30.8937
8505 1 -7.09353 -7.31714 -28.8943
8790 1 -5.97278 -10.1249 -27.8244
9002 1 8.63087 -10.048 -28.1849
20161 1 13.2172 -11.011 -29.4015
20783 1 12.7401 -6.54494 -31.3783
21087 1 18.2695 -10.7284 -30.963
20917 1 20.4027 -8.55369 -31.352
20163 1 27.8231 -10.1685 -31.9888
21074 1 25.3831 -9.59346 -27.8383
20293 1 30.0097 -6.69766 -30.8943
6270 1 -6.63027 -33.1605 -9.42012
7968 1 -27.6148 -5.01147 -28.1482
8551 1 -22.5975 -5.16674 -31.4196
13346 1 -17.249 -2.12548 -29.0919
7776 1 -11.8844 -3.87735 -28.8439
7993 1 -5.25367 -5.40703 -30.5815
9088 1 0.0577292 -5.71612 -30.8692
9187 1 0.241109 -2.59001 -31.7027
8814 1 6.14599 -3.6193 -28.2812
9248 1 2.94374 -5.87363 -27.5958
20677 1 13.7062 -2.91237 -31.6327
20949 1 15.166 -5.56822 -29.2754
21022 1 17.7753 -3.6691 -29.9879
21322 1 23.1697 -4.43736 -30.1986
20950 1 29.0353 -3.13463 -31.6917
8628 1 -27.01 0.714564 -28.6386
13340 1 -10.4675 0.334139 -27.8188
8378 1 -5.40289 0.271512 -30.283
8331 1 5.08763 0.378971 -31.5785
8917 1 4.40768 -1.20007 -28.7226
20955 1 9.68138 0.554048 -29.0092
20818 1 12.7772 2.38537 -29.5936
9438 1 16.505 -1.16637 -30.7614
21309 1 20.7041 1.5676 -28.4978
21177 1 21.384 -1.16765 -27.6161
21160 1 26.3396 0.0846852 -28.8453
21141 1 31.9067 1.0398 -30.0394
13367 1 -25.7611 5.99053 -28.8216
13049 1 -22.0361 3.11382 -30.5751
12907 1 -16.2386 2.54725 -31.7217
8353 1 -17.98 4.87079 -29.7399
8650 1 -12.5942 3.57826 -32.3912
13067 1 -5.87635 3.31007 -30.2954
13683 1 1.24276 5.99439 -29.8928
23326 1 6.36849 4.85288 -28.6371
20828 1 8.09792 2.80837 -27.298
21167 1 23.126 2.94143 -32.513
21009 1 30.8366 5.64873 -31.6582
21396 1 33.2361 6.59003 -28.2845
13102 1 -26.7456 10.8055 -26.8028
13370 1 -15.7204 10.0061 -28.036
13343 1 -12.6652 6.64815 -32.0806
13388 1 -7.12848 8.06177 -29.8007
13632 1 -3.24562 8.27419 -31.8652
13672 1 0.761892 11.3885 -28.4715
23065 1 5.31294 9.77671 -29.1288
9195 1 5.61683 9.67166 -32.0821
9824 1 7.44208 7.74125 -27.9875
20718 1 10.9458 7.39628 -31.3284
20858 1 12.6389 7.43212 -28.2232
21028 1 16.6859 8.64489 -31.7427
21165 1 20.7722 6.74352 -28.8303
21196 1 29.6211 10.4843 -31.152
21356 1 31.9478 9.79608 -29.067
12975 1 -30.2738 11.5656 -30.9997
6153 1 0.252664 -32.8231 -21.6742
12979 1 -24.957 11.8202 -29.1037
13436 1 -19.4611 12.4387 -29.7456
13165 1 -17.1667 15.3146 -29.4814
13529 1 -14.0758 14.4108 -30.6436
14539 1 -4.54373 12.6568 -28.4521
20891 1 15.4942 16.098 -29.9604
21230 1 18.5693 11.753 -31.9654
21580 1 21.1513 15.4616 -29.0086
13035 1 -29.0939 20.1108 -27.4493
12922 1 -28.4773 16.1561 -30.8566
12976 1 -24.74 18.7607 -30.3439
13538 1 -20.1458 19.2347 -28.3612
13438 1 -20.1271 16.8002 -30.5298
14014 1 -8.77713 15.9187 -31.6864
14015 1 -10.3125 18.3989 -29.7286
13725 1 -4.52836 17.74 -28.5888
22988 1 4.95683 17.5588 -31.4753
13682 1 3.7113 17.7663 -28.708
9483 1 9.10378 16.6879 -28.6571
23251 1 11.1801 19.1613 -28.9726
23376 1 17.0219 18.8695 -29.8438
21237 1 27.4994 16.3486 -30.9281
13033 1 -25.5177 23.3737 -28.0114
13486 1 -15.4236 20.3222 -30.1691
13823 1 -11.3576 24.3284 -29.1741
13732 1 -4.69199 19.885 -31.3696
23363 1 -6.19212 21.6109 -29.1945
23397 1 3.65667 20.5334 -27.3603
23116 1 3.6088 22.9081 -29.2269
23342 1 9.0206 23.4033 -30.7699
23725 1 12.1172 21.8182 -30.1012
23247 1 13.6055 23.4143 -27.8329
23075 1 18.6208 23.9571 -31.1302
23080 1 22.0158 22.4599 -31.0199
21428 1 25.9753 21.2787 -28.4842
13296 1 -21.8404 26.8796 -29.7584
18089 1 -16.9835 27.9755 -30.5126
13492 1 -3.54038 26.2087 -29.3885
23138 1 1.95375 27.1811 -28.4367
23436 1 7.29877 26.8917 -28.5614
23803 1 15.7496 26.7527 -31.918
21172 1 20.4415 27.4599 -28.88
23055 1 -12.8665 28.9852 -30.237
23152 1 -9.11607 32.5129 -29.2334
23153 1 -7.36394 29.6299 -31.6617
23290 1 -3.46818 31.1506 -31.9546
23146 1 7.84176 30.8144 -31.1612
23417 1 13.5915 31.0781 -28.2888
5711 1 -16.8081 -29.8893 -26.7714
12921 1 -33.2026 4.48907 -29.5455
5833 1 -6.59426 -29.889 -24.4057
8403 1 -0.961981 -30.7391 -24.4532
5797 1 6.78879 -30.4989 -23.9517
6086 1 18.9832 -29.5013 -26.4695
5701 1 15.7286 -31.6128 -25.9426
6218 1 20.5475 -31.4272 -23.1993
5912 1 24.2493 -28.5412 -23.32
548 1 -21.1665 -28.9105 -24.2106
8688 1 -10.2372 -26.1039 -25.5478
5980 1 -4.76061 -24.6449 -23.4031
9255 1 -1.30158 -28.4293 -23.1534
6103 1 2.14593 -25.0321 -27.0411
6107 1 3.08316 -27.9364 -26.8967
9563 1 3.85873 -25.9634 -23.9668
6272 1 9.18 -27.2255 -25.2207
5998 1 13.4948 -24.6297 -27.2411
6039 1 22.7486 -26.634 -26.5916
6257 1 27.0617 -25.6613 -23.4295
427 1 -28.7812 -21.9416 -23.6164
8436 1 -19.2149 -23.0467 -23.3635
8112 1 -14.3882 -22.0258 -26.4504
8396 1 -11.7544 -20.8586 -24.097
5642 1 -5.04545 -20.6092 -25.2608
5724 1 -0.285759 -22.4804 -22.9096
20909 1 9.37955 -21.7015 -27.2719
8995 1 12.1319 -22.422 -25.2846
20762 1 18.2396 -22.4177 -26.372
6164 1 17.5756 -23.0343 -22.9975
20185 1 25.4913 -24.0294 -27.3126
20213 1 28.3648 -20.7937 -26.489
479 1 -30.818 -17.093 -26.7329
8196 1 -21.3422 -19.037 -24.9699
8490 1 -15.9135 -17.7614 -22.7387
8700 1 -9.2944 -19.4401 -26.4709
8737 1 -10.6829 -15.847 -23.4018
8808 1 -1.25602 -16.8809 -25.857
6171 1 3.95687 -18.0667 -23.4735
8405 1 6.70704 -19.5681 -22.8595
5861 1 13.8689 -19.7074 -25.438
8713 1 16.5019 -19.9529 -26.6985